MODEL 1
REMARK VINA RESULT:    -7.412      0.000      0.000
REMARK INTER + INTRA:          -8.062
REMARK INTER:                  -8.062
REMARK INTRA:                   0.000
REMARK UNBOUND:                 0.000
REMARK  Name = C:\Users\HP\Downloads\Anthraquinone_pdb\AD10.pdb
REMARK  3 active torsions:
REMARK  status: ('A' for Active; 'I' for Inactive)
REMARK    1  A    between atoms: O_1  and  C_12
REMARK    2  A    between atoms: O_2  and  C_13
REMARK    3  A    between atoms: O_5  and  C_14
REMARK                            x       y       z     vdW  Elec       q    Type
REMARK                         _______ _______ _______ _____ _____    ______ ____
ROOT
ATOM      3  C   UNL     1      20.465  57.228  23.619  0.00  0.00    +0.170 A 
ATOM      4  C   UNL     1      21.648  57.631  22.997  0.00  0.00    +0.162 A 
ATOM      5  C   UNL     1      22.878  57.215  23.500  0.00  0.00    +0.095 A 
ATOM      6  C   UNL     1      22.933  56.395  24.627  0.00  0.00    +0.132 A 
ATOM      7  C   UNL     1      21.750  55.989  25.255  0.00  0.00    +0.078 A 
ATOM      8  C   UNL     1      21.817  55.121  26.449  0.00  0.00    +0.198 C 
ATOM      9  C   UNL     1      20.560  54.701  27.102  0.00  0.00    +0.033 A 
ATOM     10  C   UNL     1      20.611  53.879  28.233  0.00  0.00    +0.012 A 
ATOM     11  C   UNL     1      19.429  53.478  28.857  0.00  0.00    +0.001 A 
ATOM     12  C   UNL     1      18.198  53.894  28.354  0.00  0.00    +0.001 A 
ATOM     13  C   UNL     1      18.143  54.712  27.226  0.00  0.00    +0.012 A 
ATOM     14  C   UNL     1      19.327  55.118  26.598  0.00  0.00    +0.033 A 
ATOM     15  C   UNL     1      19.260  55.985  25.403  0.00  0.00    +0.198 C 
ATOM     16  O   UNL     1      18.163  56.335  24.983  0.00  0.00    -0.286 OA
ATOM     17  O   UNL     1      22.886  54.742  26.909  0.00  0.00    -0.286 OA
ATOM     22  C   UNL     1      20.516  56.406  24.751  0.00  0.00    +0.082 A 
ENDROOT
BRANCH   3   1
ATOM      1  O   UNL     1      19.287  57.663  23.087  0.00  0.00    -0.503 OA
ATOM      2  H   UNL     1      18.557  57.544  23.713  0.00  0.00    +0.292 HD
ENDBRANCH   3   1
BRANCH   6  18
ATOM     18  O   UNL     1      24.169  56.024  25.068  0.00  0.00    -0.506 OA
ATOM     19  H   UNL     1      24.809  56.732  24.881  0.00  0.00    +0.292 HD
ENDBRANCH   6  18
BRANCH   4  20
ATOM     20  O   UNL     1      21.616  58.430  21.894  0.00  0.00    -0.503 OA
ATOM     21  H   UNL     1      20.755  58.884  21.870  0.00  0.00    +0.292 HD
ENDBRANCH   4  20
TORSDOF 3
ENDMDL
MODEL 2
REMARK VINA RESULT:    -7.132      2.618      4.583
REMARK INTER + INTRA:          -7.757
REMARK INTER:                  -7.757
REMARK INTRA:                   0.000
REMARK UNBOUND:                 0.000
REMARK  Name = C:\Users\HP\Downloads\Anthraquinone_pdb\AD10.pdb
REMARK  3 active torsions:
REMARK  status: ('A' for Active; 'I' for Inactive)
REMARK    1  A    between atoms: O_1  and  C_12
REMARK    2  A    between atoms: O_2  and  C_13
REMARK    3  A    between atoms: O_5  and  C_14
REMARK                            x       y       z     vdW  Elec       q    Type
REMARK                         _______ _______ _______ _____ _____    ______ ____
ROOT
ATOM      3  C   UNL     1      18.559  55.500  25.296  0.00  0.00    +0.170 A 
ATOM      4  C   UNL     1      17.507  54.674  24.896  0.00  0.00    +0.162 A 
ATOM      5  C   UNL     1      17.031  53.685  25.754  0.00  0.00    +0.095 A 
ATOM      6  C   UNL     1      17.603  53.518  27.015  0.00  0.00    +0.132 A 
ATOM      7  C   UNL     1      18.658  54.343  27.420  0.00  0.00    +0.078 A 
ATOM      8  C   UNL     1      19.259  54.157  28.757  0.00  0.00    +0.198 C 
ATOM      9  C   UNL     1      20.372  55.036  29.171  0.00  0.00    +0.033 A 
ATOM     10  C   UNL     1      20.949  54.870  30.435  0.00  0.00    +0.012 A 
ATOM     11  C   UNL     1      22.002  55.694  30.835  0.00  0.00    +0.001 A 
ATOM     12  C   UNL     1      22.479  56.683  29.977  0.00  0.00    +0.001 A 
ATOM     13  C   UNL     1      21.906  56.853  28.717  0.00  0.00    +0.012 A 
ATOM     14  C   UNL     1      20.849  56.026  28.312  0.00  0.00    +0.033 A 
ATOM     15  C   UNL     1      20.248  56.213  26.975  0.00  0.00    +0.198 C 
ATOM     16  O   UNL     1      20.688  57.090  26.242  0.00  0.00    -0.286 OA
ATOM     17  O   UNL     1      18.857  53.296  29.529  0.00  0.00    -0.286 OA
ATOM     22  C   UNL     1      19.136  55.334  26.560  0.00  0.00    +0.082 A 
ENDROOT
BRANCH   3   1
ATOM      1  O   UNL     1      18.988  56.453  24.418  0.00  0.00    -0.503 OA
ATOM      2  H   UNL     1      18.540  56.365  23.564  0.00  0.00    +0.292 HD
ENDBRANCH   3   1
BRANCH   6  18
ATOM     18  O   UNL     1      17.090  52.532  27.805  0.00  0.00    -0.506 OA
ATOM     19  H   UNL     1      17.370  52.671  28.726  0.00  0.00    +0.292 HD
ENDBRANCH   6  18
BRANCH   4  20
ATOM     20  O   UNL     1      16.933  54.823  23.669  0.00  0.00    -0.503 OA
ATOM     21  H   UNL     1      16.754  53.938  23.305  0.00  0.00    +0.292 HD
ENDBRANCH   4  20
TORSDOF 3
ENDMDL
MODEL 3
REMARK VINA RESULT:    -6.955      3.414      4.818
REMARK INTER + INTRA:          -7.565
REMARK INTER:                  -7.565
REMARK INTRA:                   0.000
REMARK UNBOUND:                 0.000
REMARK  Name = C:\Users\HP\Downloads\Anthraquinone_pdb\AD10.pdb
REMARK  3 active torsions:
REMARK  status: ('A' for Active; 'I' for Inactive)
REMARK    1  A    between atoms: O_1  and  C_12
REMARK    2  A    between atoms: O_2  and  C_13
REMARK    3  A    between atoms: O_5  and  C_14
REMARK                            x       y       z     vdW  Elec       q    Type
REMARK                         _______ _______ _______ _____ _____    ______ ____
ROOT
ATOM      3  C   UNL     1      17.270  54.530  26.651  0.00  0.00    +0.170 A 
ATOM      4  C   UNL     1      18.042  53.922  25.660  0.00  0.00    +0.162 A 
ATOM      5  C   UNL     1      19.334  54.376  25.404  0.00  0.00    +0.095 A 
ATOM      6  C   UNL     1      19.860  55.439  26.138  0.00  0.00    +0.132 A 
ATOM      7  C   UNL     1      19.089  56.053  27.132  0.00  0.00    +0.078 A 
ATOM      8  C   UNL     1      19.655  57.179  27.904  0.00  0.00    +0.198 C 
ATOM      9  C   UNL     1      18.830  57.816  28.950  0.00  0.00    +0.033 A 
ATOM     10  C   UNL     1      19.354  58.884  29.688  0.00  0.00    +0.012 A 
ATOM     11  C   UNL     1      18.582  59.494  30.677  0.00  0.00    +0.001 A 
ATOM     12  C   UNL     1      17.289  59.040  30.933  0.00  0.00    +0.001 A 
ATOM     13  C   UNL     1      16.763  57.976  30.201  0.00  0.00    +0.012 A 
ATOM     14  C   UNL     1      17.535  57.362  29.206  0.00  0.00    +0.033 A 
ATOM     15  C   UNL     1      16.970  56.235  28.435  0.00  0.00    +0.198 C 
ATOM     16  O   UNL     1      15.831  55.857  28.681  0.00  0.00    -0.286 OA
ATOM     17  O   UNL     1      20.787  57.595  27.698  0.00  0.00    -0.286 OA
ATOM     22  C   UNL     1      17.794  55.598  27.389  0.00  0.00    +0.082 A 
ENDROOT
BRANCH   3   1
ATOM      1  O   UNL     1      16.011  54.048  26.861  0.00  0.00    -0.503 OA
ATOM      2  H   UNL     1      15.387  54.768  27.033  0.00  0.00    +0.292 HD
ENDBRANCH   3   1
BRANCH   6  18
ATOM     18  O   UNL     1      21.130  55.834  25.838  0.00  0.00    -0.506 OA
ATOM     19  H   UNL     1      21.444  55.356  25.051  0.00  0.00    +0.292 HD
ENDBRANCH   6  18
BRANCH   4  20
ATOM     20  O   UNL     1      17.546  52.881  24.933  0.00  0.00    -0.503 OA
ATOM     21  H   UNL     1      17.560  53.130  23.992  0.00  0.00    +0.292 HD
ENDBRANCH   4  20
TORSDOF 3
ENDMDL
MODEL 4
REMARK VINA RESULT:    -6.657      2.824      5.056
REMARK INTER + INTRA:          -7.241
REMARK INTER:                  -7.241
REMARK INTRA:                   0.000
REMARK UNBOUND:                 0.000
REMARK  Name = C:\Users\HP\Downloads\Anthraquinone_pdb\AD10.pdb
REMARK  3 active torsions:
REMARK  status: ('A' for Active; 'I' for Inactive)
REMARK    1  A    between atoms: O_1  and  C_12
REMARK    2  A    between atoms: O_2  and  C_13
REMARK    3  A    between atoms: O_5  and  C_14
REMARK                            x       y       z     vdW  Elec       q    Type
REMARK                         _______ _______ _______ _____ _____    ______ ____
ROOT
ATOM      3  C   UNL     1      17.118  54.709  27.454  0.00  0.00    +0.170 A 
ATOM      4  C   UNL     1      16.693  53.792  26.492  0.00  0.00    +0.162 A 
ATOM      5  C   UNL     1      17.503  53.504  25.396  0.00  0.00    +0.095 A 
ATOM      6  C   UNL     1      18.742  54.131  25.257  0.00  0.00    +0.132 A 
ATOM      7  C   UNL     1      19.172  55.052  26.219  0.00  0.00    +0.078 A 
ATOM      8  C   UNL     1      20.484  55.712  26.063  0.00  0.00    +0.198 C 
ATOM      9  C   UNL     1      20.925  56.682  27.086  0.00  0.00    +0.033 A 
ATOM     10  C   UNL     1      22.166  57.314  26.950  0.00  0.00    +0.012 A 
ATOM     11  C   UNL     1      22.591  58.232  27.911  0.00  0.00    +0.001 A 
ATOM     12  C   UNL     1      21.780  58.520  29.008  0.00  0.00    +0.001 A 
ATOM     13  C   UNL     1      20.543  57.892  29.148  0.00  0.00    +0.012 A 
ATOM     14  C   UNL     1      20.113  56.970  28.185  0.00  0.00    +0.033 A 
ATOM     15  C   UNL     1      18.801  56.309  28.341  0.00  0.00    +0.198 C 
ATOM     16  O   UNL     1      18.110  56.582  29.315  0.00  0.00    -0.286 OA
ATOM     17  O   UNL     1      21.214  55.475  25.110  0.00  0.00    -0.286 OA
ATOM     22  C   UNL     1      18.360  55.341  27.318  0.00  0.00    +0.082 A 
ENDROOT
BRANCH   3   1
ATOM      1  O   UNL     1      16.287  54.955  28.508  0.00  0.00    -0.503 OA
ATOM      2  H   UNL     1      15.405  54.587  28.349  0.00  0.00    +0.292 HD
ENDBRANCH   3   1
BRANCH   6  18
ATOM     18  O   UNL     1      19.485  53.804  24.161  0.00  0.00    -0.506 OA
ATOM     19  H   UNL     1      20.218  54.436  24.063  0.00  0.00    +0.292 HD
ENDBRANCH   6  18
BRANCH   4  20
ATOM     20  O   UNL     1      15.488  53.167  26.611  0.00  0.00    -0.503 OA
ATOM     21  H   UNL     1      15.595  52.405  27.207  0.00  0.00    +0.292 HD
ENDBRANCH   4  20
TORSDOF 3
ENDMDL
MODEL 5
REMARK VINA RESULT:    -6.624      1.406      5.006
REMARK INTER + INTRA:          -7.205
REMARK INTER:                  -7.205
REMARK INTRA:                   0.000
REMARK UNBOUND:                 0.000
REMARK  Name = C:\Users\HP\Downloads\Anthraquinone_pdb\AD10.pdb
REMARK  3 active torsions:
REMARK  status: ('A' for Active; 'I' for Inactive)
REMARK    1  A    between atoms: O_1  and  C_12
REMARK    2  A    between atoms: O_2  and  C_13
REMARK    3  A    between atoms: O_5  and  C_14
REMARK                            x       y       z     vdW  Elec       q    Type
REMARK                         _______ _______ _______ _____ _____    ______ ____
ROOT
ATOM      3  C   UNL     1      18.202  55.145  26.845  0.00  0.00    +0.170 A 
ATOM      4  C   UNL     1      17.925  54.364  27.968  0.00  0.00    +0.162 A 
ATOM      5  C   UNL     1      18.960  53.734  28.654  0.00  0.00    +0.095 A 
ATOM      6  C   UNL     1      20.278  53.882  28.221  0.00  0.00    +0.132 A 
ATOM      7  C   UNL     1      20.561  54.664  27.095  0.00  0.00    +0.078 A 
ATOM      8  C   UNL     1      21.960  54.814  26.643  0.00  0.00    +0.198 C 
ATOM      9  C   UNL     1      22.244  55.641  25.453  0.00  0.00    +0.033 A 
ATOM     10  C   UNL     1      23.564  55.792  25.015  0.00  0.00    +0.012 A 
ATOM     11  C   UNL     1      23.842  56.570  23.891  0.00  0.00    +0.001 A 
ATOM     12  C   UNL     1      22.806  57.200  23.204  0.00  0.00    +0.001 A 
ATOM     13  C   UNL     1      21.489  57.054  23.638  0.00  0.00    +0.012 A 
ATOM     14  C   UNL     1      21.206  56.272  24.765  0.00  0.00    +0.033 A 
ATOM     15  C   UNL     1      19.807  56.123  25.218  0.00  0.00    +0.198 C 
ATOM     16  O   UNL     1      18.916  56.688  24.595  0.00  0.00    -0.286 OA
ATOM     17  O   UNL     1      22.887  54.272  27.230  0.00  0.00    -0.286 OA
ATOM     22  C   UNL     1      19.523  55.295  26.407  0.00  0.00    +0.082 A 
ENDROOT
BRANCH   3   1
ATOM      1  O   UNL     1      17.151  55.740  26.209  0.00  0.00    -0.503 OA
ATOM      2  H   UNL     1      16.537  55.078  25.858  0.00  0.00    +0.292 HD
ENDBRANCH   3   1
BRANCH   6  18
ATOM     18  O   UNL     1      21.244  53.240  28.938  0.00  0.00    -0.506 OA
ATOM     19  H   UNL     1      21.396  52.355  28.563  0.00  0.00    +0.292 HD
ENDBRANCH   6  18
BRANCH   4  20
ATOM     20  O   UNL     1      16.644  54.209  28.408  0.00  0.00    -0.503 OA
ATOM     21  H   UNL     1      16.576  53.345  28.852  0.00  0.00    +0.292 HD
ENDBRANCH   4  20
TORSDOF 3
ENDMDL
MODEL 6
REMARK VINA RESULT:    -6.565     15.182     16.603
REMARK INTER + INTRA:          -7.140
REMARK INTER:                  -7.140
REMARK INTRA:                   0.000
REMARK UNBOUND:                 0.000
REMARK  Name = C:\Users\HP\Downloads\Anthraquinone_pdb\AD10.pdb
REMARK  3 active torsions:
REMARK  status: ('A' for Active; 'I' for Inactive)
REMARK    1  A    between atoms: O_1  and  C_12
REMARK    2  A    between atoms: O_2  and  C_13
REMARK    3  A    between atoms: O_5  and  C_14
REMARK                            x       y       z     vdW  Elec       q    Type
REMARK                         _______ _______ _______ _____ _____    ______ ____
ROOT
ATOM      3  C   UNL     1      16.101  41.366  20.504  0.00  0.00    +0.170 A 
ATOM      4  C   UNL     1      15.202  40.845  19.573  0.00  0.00    +0.162 A 
ATOM      5  C   UNL     1      14.230  39.933  19.975  0.00  0.00    +0.095 A 
ATOM      6  C   UNL     1      14.151  39.537  21.311  0.00  0.00    +0.132 A 
ATOM      7  C   UNL     1      15.051  40.056  22.249  0.00  0.00    +0.078 A 
ATOM      8  C   UNL     1      14.961  39.631  23.660  0.00  0.00    +0.198 C 
ATOM      9  C   UNL     1      15.918  40.187  24.639  0.00  0.00    +0.033 A 
ATOM     10  C   UNL     1      15.844  39.792  25.979  0.00  0.00    +0.012 A 
ATOM     11  C   UNL     1      16.743  40.311  26.911  0.00  0.00    +0.001 A 
ATOM     12  C   UNL     1      17.717  41.224  26.508  0.00  0.00    +0.001 A 
ATOM     13  C   UNL     1      17.794  41.621  25.174  0.00  0.00    +0.012 A 
ATOM     14  C   UNL     1      16.893  41.101  24.235  0.00  0.00    +0.033 A 
ATOM     15  C   UNL     1      16.982  41.527  22.824  0.00  0.00    +0.198 C 
ATOM     16  O   UNL     1      17.848  42.331  22.498  0.00  0.00    -0.286 OA
ATOM     17  O   UNL     1      14.116  38.832  24.039  0.00  0.00    -0.286 OA
ATOM     22  C   UNL     1      16.027  40.971  21.845  0.00  0.00    +0.082 A 
ENDROOT
BRANCH   3   1
ATOM      1  O   UNL     1      17.034  42.256  20.058  0.00  0.00    -0.503 OA
ATOM      2  H   UNL     1      17.368  42.002  19.185  0.00  0.00    +0.292 HD
ENDBRANCH   3   1
BRANCH   6  18
ATOM     18  O   UNL     1      13.176  38.642  21.638  0.00  0.00    -0.506 OA
ATOM     19  H   UNL     1      12.988  38.697  22.591  0.00  0.00    +0.292 HD
ENDBRANCH   6  18
BRANCH   4  20
ATOM     20  O   UNL     1      15.261  41.220  18.264  0.00  0.00    -0.503 OA
ATOM     21  H   UNL     1      16.112  41.668  18.112  0.00  0.00    +0.292 HD
ENDBRANCH   4  20
TORSDOF 3
ENDMDL
MODEL 7
REMARK VINA RESULT:    -6.521     15.146     15.697
REMARK INTER + INTRA:          -7.093
REMARK INTER:                  -7.093
REMARK INTRA:                   0.000
REMARK UNBOUND:                 0.000
REMARK  Name = C:\Users\HP\Downloads\Anthraquinone_pdb\AD10.pdb
REMARK  3 active torsions:
REMARK  status: ('A' for Active; 'I' for Inactive)
REMARK    1  A    between atoms: O_1  and  C_12
REMARK    2  A    between atoms: O_2  and  C_13
REMARK    3  A    between atoms: O_5  and  C_14
REMARK                            x       y       z     vdW  Elec       q    Type
REMARK                         _______ _______ _______ _____ _____    ______ ____
ROOT
ATOM      3  C   UNL     1      16.111  42.776  19.728  0.00  0.00    +0.170 A 
ATOM      4  C   UNL     1      16.063  43.380  18.471  0.00  0.00    +0.162 A 
ATOM      5  C   UNL     1      14.871  43.929  18.003  0.00  0.00    +0.095 A 
ATOM      6  C   UNL     1      13.721  43.876  18.791  0.00  0.00    +0.132 A 
ATOM      7  C   UNL     1      13.763  43.271  20.052  0.00  0.00    +0.078 A 
ATOM      8  C   UNL     1      12.539  43.219  20.878  0.00  0.00    +0.198 C 
ATOM      9  C   UNL     1      12.599  42.576  22.207  0.00  0.00    +0.033 A 
ATOM     10  C   UNL     1      11.446  42.520  22.999  0.00  0.00    +0.012 A 
ATOM     11  C   UNL     1      11.492  41.915  24.255  0.00  0.00    +0.001 A 
ATOM     12  C   UNL     1      12.685  41.366  24.723  0.00  0.00    +0.001 A 
ATOM     13  C   UNL     1      13.836  41.420  23.937  0.00  0.00    +0.012 A 
ATOM     14  C   UNL     1      13.793  42.026  22.675  0.00  0.00    +0.033 A 
ATOM     15  C   UNL     1      15.017  42.079  21.849  0.00  0.00    +0.198 C 
ATOM     16  O   UNL     1      16.052  41.589  22.285  0.00  0.00    -0.286 OA
ATOM     17  O   UNL     1      11.481  43.694  20.490  0.00  0.00    -0.286 OA
ATOM     22  C   UNL     1      14.958  42.720  20.520  0.00  0.00    +0.082 A 
ENDROOT
BRANCH   3   1
ATOM      1  O   UNL     1      17.303  42.254  20.138  0.00  0.00    -0.503 OA
ATOM      2  H   UNL     1      17.661  42.753  20.887  0.00  0.00    +0.292 HD
ENDBRANCH   3   1
BRANCH   6  18
ATOM     18  O   UNL     1      12.588  44.432  18.274  0.00  0.00    -0.506 OA
ATOM     19  H   UNL     1      12.394  44.035  17.408  0.00  0.00    +0.292 HD
ENDBRANCH   6  18
BRANCH   4  20
ATOM     20  O   UNL     1      17.177  43.444  17.687  0.00  0.00    -0.503 OA
ATOM     21  H   UNL     1      17.019  44.098  16.984  0.00  0.00    +0.292 HD
ENDBRANCH   4  20
TORSDOF 3
ENDMDL
MODEL 8
REMARK VINA RESULT:    -6.504     25.600     27.566
REMARK INTER + INTRA:          -7.075
REMARK INTER:                  -7.075
REMARK INTRA:                   0.000
REMARK UNBOUND:                 0.000
REMARK  Name = C:\Users\HP\Downloads\Anthraquinone_pdb\AD10.pdb
REMARK  3 active torsions:
REMARK  status: ('A' for Active; 'I' for Inactive)
REMARK    1  A    between atoms: O_1  and  C_12
REMARK    2  A    between atoms: O_2  and  C_13
REMARK    3  A    between atoms: O_5  and  C_14
REMARK                            x       y       z     vdW  Elec       q    Type
REMARK                         _______ _______ _______ _____ _____    ______ ____
ROOT
ATOM      3  C   UNL     1      18.805  71.177   4.950  0.00  0.00    +0.170 A 
ATOM      4  C   UNL     1      19.806  72.149   4.987  0.00  0.00    +0.162 A 
ATOM      5  C   UNL     1      20.240  72.750   3.808  0.00  0.00    +0.095 A 
ATOM      6  C   UNL     1      19.676  72.382   2.586  0.00  0.00    +0.132 A 
ATOM      7  C   UNL     1      18.674  71.407   2.544  0.00  0.00    +0.078 A 
ATOM      8  C   UNL     1      18.083  71.023   1.245  0.00  0.00    +0.198 C 
ATOM      9  C   UNL     1      17.026  69.992   1.216  0.00  0.00    +0.033 A 
ATOM     10  C   UNL     1      16.459  69.619  -0.008  0.00  0.00    +0.012 A 
ATOM     11  C   UNL     1      15.460  68.645  -0.047  0.00  0.00    +0.001 A 
ATOM     12  C   UNL     1      15.026  68.044   1.133  0.00  0.00    +0.001 A 
ATOM     13  C   UNL     1      15.587  68.413   2.355  0.00  0.00    +0.012 A 
ATOM     14  C   UNL     1      16.591  69.389   2.397  0.00  0.00    +0.033 A 
ATOM     15  C   UNL     1      17.180  69.774   3.696  0.00  0.00    +0.198 C 
ATOM     16  O   UNL     1      16.779  69.229   4.717  0.00  0.00    -0.286 OA
ATOM     17  O   UNL     1      18.447  71.537   0.196  0.00  0.00    -0.286 OA
ATOM     22  C   UNL     1      18.238  70.804   3.726  0.00  0.00    +0.082 A 
ENDROOT
BRANCH   3   1
ATOM      1  O   UNL     1      18.417  70.620   6.133  0.00  0.00    -0.503 OA
ATOM      2  H   UNL     1      18.451  71.269   6.851  0.00  0.00    +0.292 HD
ENDBRANCH   3   1
BRANCH   6  18
ATOM     18  O   UNL     1      20.146  73.009   1.470  0.00  0.00    -0.506 OA
ATOM     19  H   UNL     1      19.903  72.497   0.680  0.00  0.00    +0.292 HD
ENDBRANCH   6  18
BRANCH   4  20
ATOM     20  O   UNL     1      20.368  72.524   6.171  0.00  0.00    -0.503 OA
ATOM     21  H   UNL     1      20.332  73.495   6.233  0.00  0.00    +0.292 HD
ENDBRANCH   4  20
TORSDOF 3
ENDMDL
MODEL 9
REMARK VINA RESULT:    -6.432     18.783     20.557
REMARK INTER + INTRA:          -6.996
REMARK INTER:                  -6.996
REMARK INTRA:                   0.000
REMARK UNBOUND:                 0.000
REMARK  Name = C:\Users\HP\Downloads\Anthraquinone_pdb\AD10.pdb
REMARK  3 active torsions:
REMARK  status: ('A' for Active; 'I' for Inactive)
REMARK    1  A    between atoms: O_1  and  C_12
REMARK    2  A    between atoms: O_2  and  C_13
REMARK    3  A    between atoms: O_5  and  C_14
REMARK                            x       y       z     vdW  Elec       q    Type
REMARK                         _______ _______ _______ _____ _____    ______ ____
ROOT
ATOM      3  C   UNL     1      24.107  47.430   9.041  0.00  0.00    +0.170 A 
ATOM      4  C   UNL     1      24.197  46.055   9.263  0.00  0.00    +0.162 A 
ATOM      5  C   UNL     1      23.452  45.171   8.486  0.00  0.00    +0.095 A 
ATOM      6  C   UNL     1      22.613  45.657   7.483  0.00  0.00    +0.132 A 
ATOM      7  C   UNL     1      22.518  47.035   7.257  0.00  0.00    +0.078 A 
ATOM      8  C   UNL     1      21.626  47.540   6.193  0.00  0.00    +0.198 C 
ATOM      9  C   UNL     1      21.536  48.997   5.966  0.00  0.00    +0.033 A 
ATOM     10  C   UNL     1      20.695  49.489   4.962  0.00  0.00    +0.012 A 
ATOM     11  C   UNL     1      20.602  50.863   4.740  0.00  0.00    +0.001 A 
ATOM     12  C   UNL     1      21.348  51.748   5.518  0.00  0.00    +0.001 A 
ATOM     13  C   UNL     1      22.188  51.262   6.519  0.00  0.00    +0.012 A 
ATOM     14  C   UNL     1      22.283  49.883   6.745  0.00  0.00    +0.033 A 
ATOM     15  C   UNL     1      23.176  49.378   7.808  0.00  0.00    +0.198 C 
ATOM     16  O   UNL     1      23.819  50.178   8.476  0.00  0.00    -0.286 OA
ATOM     17  O   UNL     1      20.962  46.784   5.497  0.00  0.00    -0.286 OA
ATOM     22  C   UNL     1      23.265  47.921   8.036  0.00  0.00    +0.082 A 
ENDROOT
BRANCH   3   1
ATOM      1  O   UNL     1      24.858  48.252   9.829  0.00  0.00    -0.503 OA
ATOM      2  H   UNL     1      24.340  49.013  10.130  0.00  0.00    +0.292 HD
ENDBRANCH   3   1
BRANCH   6  18
ATOM     18  O   UNL     1      21.912  44.738   6.759  0.00  0.00    -0.506 OA
ATOM     19  H   UNL     1      22.413  43.906   6.713  0.00  0.00    +0.292 HD
ENDBRANCH   6  18
BRANCH   4  20
ATOM     20  O   UNL     1      25.013  45.560  10.237  0.00  0.00    -0.503 OA
ATOM     21  H   UNL     1      25.909  45.915  10.095  0.00  0.00    +0.292 HD
ENDBRANCH   4  20
TORSDOF 3
ENDMDL
