MODEL 1
REMARK VINA RESULT:    -7.206      0.000      0.000
REMARK INTER + INTRA:          -7.628
REMARK INTER:                  -7.628
REMARK INTRA:                   0.000
REMARK UNBOUND:                 0.000
REMARK  Name = C:\Users\HP\Downloads\Anthraquinone_pdb\AD11.pdb
REMARK  2 active torsions:
REMARK  status: ('A' for Active; 'I' for Inactive)
REMARK    1  A    between atoms: O_1  and  C_11
REMARK    2  A    between atoms: O_4  and  C_15
REMARK                            x       y       z     vdW  Elec       q    Type
REMARK                         _______ _______ _______ _____ _____    ______ ____
ROOT
ATOM      3  C   UNL     1      16.814  54.157  26.474  0.00  0.00    +0.132 A 
ATOM      4  C   UNL     1      17.467  53.505  25.427  0.00  0.00    +0.091 A 
ATOM      5  C   UNL     1      18.749  53.898  25.051  0.00  0.00    +0.121 A 
ATOM      6  C   UNL     1      19.385  54.945  25.719  0.00  0.00    +0.058 A 
ATOM      7  C   UNL     1      18.734  55.602  26.769  0.00  0.00    +0.040 A 
ATOM      8  C   UNL     1      19.415  56.709  27.471  0.00  0.00    +0.195 C 
ATOM      9  C   UNL     1      18.718  57.393  28.579  0.00  0.00    +0.033 A 
ATOM     10  C   UNL     1      19.352  58.444  29.253  0.00  0.00    +0.012 A 
ATOM     11  C   UNL     1      18.701  59.095  30.300  0.00  0.00    +0.001 A 
ATOM     12  C   UNL     1      17.419  58.702  30.677  0.00  0.00    +0.001 A 
ATOM     13  C   UNL     1      16.782  57.656  30.009  0.00  0.00    +0.012 A 
ATOM     14  C   UNL     1      17.432  57.000  28.957  0.00  0.00    +0.033 A 
ATOM     15  C   UNL     1      16.751  55.893  28.255  0.00  0.00    +0.198 C 
ATOM     16  O   UNL     1      15.623  55.568  28.604  0.00  0.00    -0.286 OA
ATOM     17  O   UNL     1      20.543  57.054  27.140  0.00  0.00    -0.287 OA
ATOM     20  C   UNL     1      17.449  55.209  27.147  0.00  0.00    +0.075 A 
ENDROOT
BRANCH   3   1
ATOM      1  O   UNL     1      15.562  53.724  26.794  0.00  0.00    -0.506 OA
ATOM      2  H   UNL     1      15.575  52.762  26.934  0.00  0.00    +0.292 HD
ENDBRANCH   3   1
BRANCH   5  18
ATOM     18  O   UNL     1      19.383  53.258  24.030  0.00  0.00    -0.507 OA
ATOM     19  H   UNL     1      20.135  53.801  23.736  0.00  0.00    +0.292 HD
ENDBRANCH   5  18
TORSDOF 2
ENDMDL
MODEL 2
REMARK VINA RESULT:    -6.962      3.288      4.868
REMARK INTER + INTRA:          -7.369
REMARK INTER:                  -7.369
REMARK INTRA:                   0.000
REMARK UNBOUND:                 0.000
REMARK  Name = C:\Users\HP\Downloads\Anthraquinone_pdb\AD11.pdb
REMARK  2 active torsions:
REMARK  status: ('A' for Active; 'I' for Inactive)
REMARK    1  A    between atoms: O_1  and  C_11
REMARK    2  A    between atoms: O_4  and  C_15
REMARK                            x       y       z     vdW  Elec       q    Type
REMARK                         _______ _______ _______ _____ _____    ______ ____
ROOT
ATOM      3  C   UNL     1      20.873  57.072  23.907  0.00  0.00    +0.132 A 
ATOM      4  C   UNL     1      22.129  57.405  23.397  0.00  0.00    +0.091 A 
ATOM      5  C   UNL     1      23.281  56.901  23.995  0.00  0.00    +0.121 A 
ATOM      6  C   UNL     1      23.185  56.063  25.106  0.00  0.00    +0.058 A 
ATOM      7  C   UNL     1      21.927  55.727  25.622  0.00  0.00    +0.040 A 
ATOM      8  C   UNL     1      21.835  54.839  26.799  0.00  0.00    +0.195 C 
ATOM      9  C   UNL     1      20.502  54.491  27.331  0.00  0.00    +0.033 A 
ATOM     10  C   UNL     1      20.400  53.650  28.446  0.00  0.00    +0.012 A 
ATOM     11  C   UNL     1      19.145  53.316  28.956  0.00  0.00    +0.001 A 
ATOM     12  C   UNL     1      17.992  53.819  28.357  0.00  0.00    +0.001 A 
ATOM     13  C   UNL     1      18.088  54.658  27.247  0.00  0.00    +0.012 A 
ATOM     14  C   UNL     1      19.345  54.996  26.732  0.00  0.00    +0.033 A 
ATOM     15  C   UNL     1      19.438  55.884  25.556  0.00  0.00    +0.198 C 
ATOM     16  O   UNL     1      18.410  56.315  25.050  0.00  0.00    -0.286 OA
ATOM     17  O   UNL     1      22.849  54.396  27.324  0.00  0.00    -0.287 OA
ATOM     20  C   UNL     1      20.771  56.232  25.023  0.00  0.00    +0.075 A 
ENDROOT
BRANCH   3   1
ATOM      1  O   UNL     1      19.785  57.597  23.276  0.00  0.00    -0.506 OA
ATOM      2  H   UNL     1      19.992  57.745  22.337  0.00  0.00    +0.292 HD
ENDBRANCH   3   1
BRANCH   5  18
ATOM     18  O   UNL     1      24.505  57.226  23.493  0.00  0.00    -0.507 OA
ATOM     19  H   UNL     1      24.675  56.687  22.701  0.00  0.00    +0.292 HD
ENDBRANCH   5  18
TORSDOF 2
ENDMDL
MODEL 3
REMARK VINA RESULT:    -6.921      3.262      5.299
REMARK INTER + INTRA:          -7.326
REMARK INTER:                  -7.326
REMARK INTRA:                   0.000
REMARK UNBOUND:                 0.000
REMARK  Name = C:\Users\HP\Downloads\Anthraquinone_pdb\AD11.pdb
REMARK  2 active torsions:
REMARK  status: ('A' for Active; 'I' for Inactive)
REMARK    1  A    between atoms: O_1  and  C_11
REMARK    2  A    between atoms: O_4  and  C_15
REMARK                            x       y       z     vdW  Elec       q    Type
REMARK                         _______ _______ _______ _____ _____    ______ ____
ROOT
ATOM      3  C   UNL     1      22.837  56.131  24.816  0.00  0.00    +0.132 A 
ATOM      4  C   UNL     1      22.773  56.943  23.683  0.00  0.00    +0.091 A 
ATOM      5  C   UNL     1      21.538  57.353  23.187  0.00  0.00    +0.121 A 
ATOM      6  C   UNL     1      20.361  56.954  23.821  0.00  0.00    +0.058 A 
ATOM      7  C   UNL     1      20.421  56.140  24.958  0.00  0.00    +0.040 A 
ATOM      8  C   UNL     1      19.170  55.723  25.624  0.00  0.00    +0.195 C 
ATOM      9  C   UNL     1      19.247  54.865  26.823  0.00  0.00    +0.033 A 
ATOM     10  C   UNL     1      18.069  54.462  27.464  0.00  0.00    +0.012 A 
ATOM     11  C   UNL     1      18.133  53.652  28.598  0.00  0.00    +0.001 A 
ATOM     12  C   UNL     1      19.368  53.242  29.094  0.00  0.00    +0.001 A 
ATOM     13  C   UNL     1      20.545  53.640  28.459  0.00  0.00    +0.012 A 
ATOM     14  C   UNL     1      20.486  54.453  27.321  0.00  0.00    +0.033 A 
ATOM     15  C   UNL     1      21.736  54.870  26.656  0.00  0.00    +0.198 C 
ATOM     16  O   UNL     1      22.809  54.494  27.111  0.00  0.00    -0.286 OA
ATOM     17  O   UNL     1      18.084  56.084  25.187  0.00  0.00    -0.287 OA
ATOM     20  C   UNL     1      21.659  55.728  25.456  0.00  0.00    +0.075 A 
ENDROOT
BRANCH   3   1
ATOM      1  O   UNL     1      24.077  55.765  25.251  0.00  0.00    -0.506 OA
ATOM      2  H   UNL     1      24.480  55.154  24.612  0.00  0.00    +0.292 HD
ENDBRANCH   3   1
BRANCH   5  18
ATOM     18  O   UNL     1      21.479  58.146  22.082  0.00  0.00    -0.507 OA
ATOM     19  H   UNL     1      22.368  58.498  21.898  0.00  0.00    +0.292 HD
ENDBRANCH   5  18
TORSDOF 2
ENDMDL
MODEL 4
REMARK VINA RESULT:    -6.830      1.110      3.066
REMARK INTER + INTRA:          -7.229
REMARK INTER:                  -7.229
REMARK INTRA:                   0.000
REMARK UNBOUND:                 0.000
REMARK  Name = C:\Users\HP\Downloads\Anthraquinone_pdb\AD11.pdb
REMARK  2 active torsions:
REMARK  status: ('A' for Active; 'I' for Inactive)
REMARK    1  A    between atoms: O_1  and  C_11
REMARK    2  A    between atoms: O_4  and  C_15
REMARK                            x       y       z     vdW  Elec       q    Type
REMARK                         _______ _______ _______ _____ _____    ______ ____
ROOT
ATOM      3  C   UNL     1      19.869  55.239  26.559  0.00  0.00    +0.132 A 
ATOM      4  C   UNL     1      19.253  54.283  25.752  0.00  0.00    +0.091 A 
ATOM      5  C   UNL     1      17.881  54.060  25.857  0.00  0.00    +0.121 A 
ATOM      6  C   UNL     1      17.121  54.792  26.769  0.00  0.00    +0.058 A 
ATOM      7  C   UNL     1      17.736  55.751  27.582  0.00  0.00    +0.040 A 
ATOM      8  C   UNL     1      16.923  56.521  28.545  0.00  0.00    +0.195 C 
ATOM      9  C   UNL     1      17.584  57.532  29.395  0.00  0.00    +0.033 A 
ATOM     10  C   UNL     1      16.825  58.269  30.312  0.00  0.00    +0.012 A 
ATOM     11  C   UNL     1      17.441  59.227  31.118  0.00  0.00    +0.001 A 
ATOM     12  C   UNL     1      18.812  59.450  31.012  0.00  0.00    +0.001 A 
ATOM     13  C   UNL     1      19.573  58.718  30.101  0.00  0.00    +0.012 A 
ATOM     14  C   UNL     1      18.959  57.757  29.290  0.00  0.00    +0.033 A 
ATOM     15  C   UNL     1      19.772  56.986  28.327  0.00  0.00    +0.198 C 
ATOM     16  O   UNL     1      20.975  57.200  28.255  0.00  0.00    -0.286 OA
ATOM     17  O   UNL     1      15.717  56.325  28.637  0.00  0.00    -0.287 OA
ATOM     20  C   UNL     1      19.110  55.975  27.477  0.00  0.00    +0.075 A 
ENDROOT
BRANCH   3   1
ATOM      1  O   UNL     1      21.214  55.410  26.407  0.00  0.00    -0.506 OA
ATOM      2  H   UNL     1      21.398  56.324  26.133  0.00  0.00    +0.292 HD
ENDBRANCH   3   1
BRANCH   5  18
ATOM     18  O   UNL     1      17.282  53.127  25.066  0.00  0.00    -0.507 OA
ATOM     19  H   UNL     1      17.564  53.266  24.145  0.00  0.00    +0.292 HD
ENDBRANCH   5  18
TORSDOF 2
ENDMDL
MODEL 5
REMARK VINA RESULT:    -6.703      8.726     10.568
REMARK INTER + INTRA:          -7.094
REMARK INTER:                  -7.094
REMARK INTRA:                   0.000
REMARK UNBOUND:                 0.000
REMARK  Name = C:\Users\HP\Downloads\Anthraquinone_pdb\AD11.pdb
REMARK  2 active torsions:
REMARK  status: ('A' for Active; 'I' for Inactive)
REMARK    1  A    between atoms: O_1  and  C_11
REMARK    2  A    between atoms: O_4  and  C_15
REMARK                            x       y       z     vdW  Elec       q    Type
REMARK                         _______ _______ _______ _____ _____    ______ ____
ROOT
ATOM      3  C   UNL     1      27.589  58.798  21.438  0.00  0.00    +0.132 A 
ATOM      4  C   UNL     1      28.713  59.517  21.030  0.00  0.00    +0.091 A 
ATOM      5  C   UNL     1      29.225  60.530  21.838  0.00  0.00    +0.121 A 
ATOM      6  C   UNL     1      28.616  60.828  23.058  0.00  0.00    +0.058 A 
ATOM      7  C   UNL     1      27.488  60.109  23.470  0.00  0.00    +0.040 A 
ATOM      8  C   UNL     1      26.850  60.432  24.763  0.00  0.00    +0.195 C 
ATOM      9  C   UNL     1      25.661  59.664  25.187  0.00  0.00    +0.033 A 
ATOM     10  C   UNL     1      25.047  59.960  26.410  0.00  0.00    +0.012 A 
ATOM     11  C   UNL     1      23.924  59.240  26.818  0.00  0.00    +0.001 A 
ATOM     12  C   UNL     1      23.412  58.226  26.010  0.00  0.00    +0.001 A 
ATOM     13  C   UNL     1      24.021  57.929  24.790  0.00  0.00    +0.012 A 
ATOM     14  C   UNL     1      25.147  58.649  24.377  0.00  0.00    +0.033 A 
ATOM     15  C   UNL     1      25.786  58.326  23.085  0.00  0.00    +0.198 C 
ATOM     16  O   UNL     1      25.315  57.433  22.392  0.00  0.00    -0.286 OA
ATOM     17  O   UNL     1      27.300  61.323  25.473  0.00  0.00    -0.287 OA
ATOM     20  C   UNL     1      26.974  59.094  22.660  0.00  0.00    +0.075 A 
ENDROOT
BRANCH   3   1
ATOM      1  O   UNL     1      27.139  57.819  20.602  0.00  0.00    -0.506 OA
ATOM      2  H   UNL     1      27.342  58.057  19.682  0.00  0.00    +0.292 HD
ENDBRANCH   3   1
BRANCH   5  18
ATOM     18  O   UNL     1      30.323  61.229  21.438  0.00  0.00    -0.507 OA
ATOM     19  H   UNL     1      30.042  61.946  20.843  0.00  0.00    +0.292 HD
ENDBRANCH   5  18
TORSDOF 2
ENDMDL
MODEL 6
REMARK VINA RESULT:    -6.605      2.983      5.469
REMARK INTER + INTRA:          -6.992
REMARK INTER:                  -6.992
REMARK INTRA:                   0.000
REMARK UNBOUND:                 0.000
REMARK  Name = C:\Users\HP\Downloads\Anthraquinone_pdb\AD11.pdb
REMARK  2 active torsions:
REMARK  status: ('A' for Active; 'I' for Inactive)
REMARK    1  A    between atoms: O_1  and  C_11
REMARK    2  A    between atoms: O_4  and  C_15
REMARK                            x       y       z     vdW  Elec       q    Type
REMARK                         _______ _______ _______ _____ _____    ______ ____
ROOT
ATOM      3  C   UNL     1      20.164  53.889  28.290  0.00  0.00    +0.132 A 
ATOM      4  C   UNL     1      18.850  53.727  28.733  0.00  0.00    +0.091 A 
ATOM      5  C   UNL     1      17.802  54.331  28.044  0.00  0.00    +0.121 A 
ATOM      6  C   UNL     1      18.060  55.100  26.908  0.00  0.00    +0.058 A 
ATOM      7  C   UNL     1      19.377  55.266  26.462  0.00  0.00    +0.040 A 
ATOM      8  C   UNL     1      19.641  56.082  25.259  0.00  0.00    +0.195 C 
ATOM      9  C   UNL     1      21.035  56.247  24.797  0.00  0.00    +0.033 A 
ATOM     10  C   UNL     1      21.300  57.018  23.659  0.00  0.00    +0.012 A 
ATOM     11  C   UNL     1      22.613  57.179  23.215  0.00  0.00    +0.001 A 
ATOM     12  C   UNL     1      23.661  56.574  23.904  0.00  0.00    +0.001 A 
ATOM     13  C   UNL     1      23.403  55.806  25.040  0.00  0.00    +0.012 A 
ATOM     14  C   UNL     1      22.087  55.642  25.488  0.00  0.00    +0.033 A 
ATOM     15  C   UNL     1      21.822  54.826  26.691  0.00  0.00    +0.198 C 
ATOM     16  O   UNL     1      22.762  54.307  27.280  0.00  0.00    -0.286 OA
ATOM     17  O   UNL     1      18.719  56.613  24.653  0.00  0.00    -0.287 OA
ATOM     20  C   UNL     1      20.429  54.661  27.152  0.00  0.00    +0.075 A 
ENDROOT
BRANCH   3   1
ATOM      1  O   UNL     1      21.144  53.271  29.009  0.00  0.00    -0.506 OA
ATOM      2  H   UNL     1      21.114  53.576  29.932  0.00  0.00    +0.292 HD
ENDBRANCH   3   1
BRANCH   5  18
ATOM     18  O   UNL     1      16.521  54.169  28.477  0.00  0.00    -0.507 OA
ATOM     19  H   UNL     1      16.460  54.472  29.400  0.00  0.00    +0.292 HD
ENDBRANCH   5  18
TORSDOF 2
ENDMDL
MODEL 7
REMARK VINA RESULT:    -6.370      1.326      5.879
REMARK INTER + INTRA:          -6.743
REMARK INTER:                  -6.743
REMARK INTRA:                   0.000
REMARK UNBOUND:                 0.000
REMARK  Name = C:\Users\HP\Downloads\Anthraquinone_pdb\AD11.pdb
REMARK  2 active torsions:
REMARK  status: ('A' for Active; 'I' for Inactive)
REMARK    1  A    between atoms: O_1  and  C_11
REMARK    2  A    between atoms: O_4  and  C_15
REMARK                            x       y       z     vdW  Elec       q    Type
REMARK                         _______ _______ _______ _____ _____    ______ ____
ROOT
ATOM      3  C   UNL     1      19.461  58.352  29.276  0.00  0.00    +0.132 A 
ATOM      4  C   UNL     1      18.809  59.032  30.306  0.00  0.00    +0.091 A 
ATOM      5  C   UNL     1      17.501  58.695  30.645  0.00  0.00    +0.121 A 
ATOM      6  C   UNL     1      16.838  57.679  29.957  0.00  0.00    +0.058 A 
ATOM      7  C   UNL     1      17.488  56.996  28.923  0.00  0.00    +0.040 A 
ATOM      8  C   UNL     1      16.778  55.921  28.200  0.00  0.00    +0.195 C 
ATOM      9  C   UNL     1      17.476  55.206  27.111  0.00  0.00    +0.033 A 
ATOM     10  C   UNL     1      16.815  54.185  26.418  0.00  0.00    +0.012 A 
ATOM     11  C   UNL     1      17.467  53.505  25.389  0.00  0.00    +0.001 A 
ATOM     12  C   UNL     1      18.776  53.841  25.050  0.00  0.00    +0.001 A 
ATOM     13  C   UNL     1      19.438  54.858  25.737  0.00  0.00    +0.012 A 
ATOM     14  C   UNL     1      18.788  55.543  26.770  0.00  0.00    +0.033 A 
ATOM     15  C   UNL     1      19.497  56.618  27.493  0.00  0.00    +0.198 C 
ATOM     16  O   UNL     1      20.646  56.895  27.174  0.00  0.00    -0.286 OA
ATOM     17  O   UNL     1      15.627  55.625  28.499  0.00  0.00    -0.287 OA
ATOM     20  C   UNL     1      18.799  57.332  28.581  0.00  0.00    +0.075 A 
ENDROOT
BRANCH   3   1
ATOM      1  O   UNL     1      20.741  58.729  28.993  0.00  0.00    -0.506 OA
ATOM      2  H   UNL     1      21.318  58.510  29.744  0.00  0.00    +0.292 HD
ENDBRANCH   3   1
BRANCH   5  18
ATOM     18  O   UNL     1      16.868  59.359  31.652  0.00  0.00    -0.507 OA
ATOM     19  H   UNL     1      16.533  58.711  32.296  0.00  0.00    +0.292 HD
ENDBRANCH   5  18
TORSDOF 2
ENDMDL
MODEL 8
REMARK VINA RESULT:    -6.184     27.803     29.115
REMARK INTER + INTRA:          -6.546
REMARK INTER:                  -6.546
REMARK INTRA:                   0.000
REMARK UNBOUND:                 0.000
REMARK  Name = C:\Users\HP\Downloads\Anthraquinone_pdb\AD11.pdb
REMARK  2 active torsions:
REMARK  status: ('A' for Active; 'I' for Inactive)
REMARK    1  A    between atoms: O_1  and  C_11
REMARK    2  A    between atoms: O_4  and  C_15
REMARK                            x       y       z     vdW  Elec       q    Type
REMARK                         _______ _______ _______ _____ _____    ______ ____
ROOT
ATOM      3  C   UNL     1      19.428  71.769   5.340  0.00  0.00    +0.132 A 
ATOM      4  C   UNL     1      20.471  72.695   5.354  0.00  0.00    +0.091 A 
ATOM      5  C   UNL     1      21.000  73.168   4.155  0.00  0.00    +0.121 A 
ATOM      6  C   UNL     1      20.489  72.717   2.937  0.00  0.00    +0.058 A 
ATOM      7  C   UNL     1      19.443  71.787   2.920  0.00  0.00    +0.040 A 
ATOM      8  C   UNL     1      18.908  71.316   1.626  0.00  0.00    +0.195 C 
ATOM      9  C   UNL     1      17.803  70.336   1.622  0.00  0.00    +0.033 A 
ATOM     10  C   UNL     1      17.287  69.880   0.402  0.00  0.00    +0.012 A 
ATOM     11  C   UNL     1      16.243  68.955   0.389  0.00  0.00    +0.001 A 
ATOM     12  C   UNL     1      15.713  68.483   1.588  0.00  0.00    +0.001 A 
ATOM     13  C   UNL     1      16.225  68.932   2.805  0.00  0.00    +0.012 A 
ATOM     14  C   UNL     1      17.272  69.861   2.823  0.00  0.00    +0.033 A 
ATOM     15  C   UNL     1      17.807  70.333   4.117  0.00  0.00    +0.198 C 
ATOM     16  O   UNL     1      17.326  69.900   5.156  0.00  0.00    -0.286 OA
ATOM     17  O   UNL     1      19.374  71.732   0.572  0.00  0.00    -0.287 OA
ATOM     20  C   UNL     1      18.912  71.313   4.121  0.00  0.00    +0.075 A 
ENDROOT
BRANCH   3   1
ATOM      1  O   UNL     1      18.955  71.346   6.547  0.00  0.00    -0.506 OA
ATOM      2  H   UNL     1      19.120  72.028   7.220  0.00  0.00    +0.292 HD
ENDBRANCH   3   1
BRANCH   5  18
ATOM     18  O   UNL     1      22.017  74.074   4.172  0.00  0.00    -0.507 OA
ATOM     19  H   UNL     1      21.773  74.833   3.614  0.00  0.00    +0.292 HD
ENDBRANCH   5  18
TORSDOF 2
ENDMDL
MODEL 9
REMARK VINA RESULT:    -6.127      2.704      3.711
REMARK INTER + INTRA:          -6.485
REMARK INTER:                  -6.485
REMARK INTRA:                   0.000
REMARK UNBOUND:                 0.000
REMARK  Name = C:\Users\HP\Downloads\Anthraquinone_pdb\AD11.pdb
REMARK  2 active torsions:
REMARK  status: ('A' for Active; 'I' for Inactive)
REMARK    1  A    between atoms: O_1  and  C_11
REMARK    2  A    between atoms: O_4  and  C_15
REMARK                            x       y       z     vdW  Elec       q    Type
REMARK                         _______ _______ _______ _____ _____    ______ ____
ROOT
ATOM      3  C   UNL     1      17.534  56.313  27.908  0.00  0.00    +0.132 A 
ATOM      4  C   UNL     1      16.892  55.155  27.468  0.00  0.00    +0.091 A 
ATOM      5  C   UNL     1      17.409  53.903  27.793  0.00  0.00    +0.121 A 
ATOM      6  C   UNL     1      18.571  53.802  28.559  0.00  0.00    +0.058 A 
ATOM      7  C   UNL     1      19.218  54.962  29.002  0.00  0.00    +0.040 A 
ATOM      8  C   UNL     1      20.448  54.846  29.813  0.00  0.00    +0.195 C 
ATOM      9  C   UNL     1      21.120  56.077  30.275  0.00  0.00    +0.033 A 
ATOM     10  C   UNL     1      22.287  55.981  31.044  0.00  0.00    +0.012 A 
ATOM     11  C   UNL     1      22.928  57.139  31.486  0.00  0.00    +0.001 A 
ATOM     12  C   UNL     1      22.410  58.391  31.162  0.00  0.00    +0.001 A 
ATOM     13  C   UNL     1      21.249  58.491  30.395  0.00  0.00    +0.012 A 
ATOM     14  C   UNL     1      20.602  57.333  29.950  0.00  0.00    +0.033 A 
ATOM     15  C   UNL     1      19.373  57.448  29.139  0.00  0.00    +0.198 C 
ATOM     16  O   UNL     1      18.940  58.560  28.866  0.00  0.00    -0.286 OA
ATOM     17  O   UNL     1      20.903  53.745  30.098  0.00  0.00    -0.287 OA
ATOM     20  C   UNL     1      18.700  56.217  28.677  0.00  0.00    +0.075 A 
ENDROOT
BRANCH   3   1
ATOM      1  O   UNL     1      16.976  57.507  27.557  0.00  0.00    -0.506 OA
ATOM      2  H   UNL     1      17.608  58.018  27.025  0.00  0.00    +0.292 HD
ENDBRANCH   3   1
BRANCH   5  18
ATOM     18  O   UNL     1      16.778  52.775  27.363  0.00  0.00    -0.507 OA
ATOM     19  H   UNL     1      15.860  52.997  27.129  0.00  0.00    +0.292 HD
ENDBRANCH   5  18
TORSDOF 2
ENDMDL
