MODEL 1
REMARK VINA RESULT:    -7.175      0.000      0.000
REMARK INTER + INTRA:          -8.456
REMARK INTER:                  -8.223
REMARK INTRA:                  -0.232
REMARK UNBOUND:                -0.232
REMARK  Name = C:\Users\HP\Downloads\Anthraquinone_pdb\AD12.pdb
REMARK  4 active torsions:
REMARK  status: ('A' for Active; 'I' for Inactive)
REMARK    1  A    between atoms: O_1  and  C_10
REMARK    2  A    between atoms: O_2  and  C_15
REMARK    3  A    between atoms: O_5  and  C_18
REMARK    4  A    between atoms: C_13  and  C_18
REMARK                            x       y       z     vdW  Elec       q    Type
REMARK                         _______ _______ _______ _____ _____    ______ ____
ROOT
ATOM      3  C   UNL     1      20.712  57.042  24.200  0.00  0.00    +0.137 A 
ATOM      4  C   UNL     1      21.942  57.461  23.691  0.00  0.00    +0.061 A 
ATOM      8  C   UNL     1      23.128  57.002  24.260  0.00  0.00    +0.126 A 
ATOM      9  C   UNL     1      23.089  56.123  25.342  0.00  0.00    +0.058 A 
ATOM     10  C   UNL     1      21.858  55.700  25.857  0.00  0.00    +0.040 A 
ATOM     11  C   UNL     1      21.827  54.768  27.004  0.00  0.00    +0.195 C 
ATOM     12  C   UNL     1      20.521  54.330  27.537  0.00  0.00    +0.033 A 
ATOM     13  C   UNL     1      20.479  53.447  28.623  0.00  0.00    +0.012 A 
ATOM     14  C   UNL     1      19.249  53.029  29.133  0.00  0.00    +0.001 A 
ATOM     15  C   UNL     1      18.063  53.488  28.563  0.00  0.00    +0.001 A 
ATOM     16  C   UNL     1      18.101  54.367  27.480  0.00  0.00    +0.012 A 
ATOM     17  C   UNL     1      19.333  54.790  26.965  0.00  0.00    +0.033 A 
ATOM     18  C   UNL     1      19.363  55.721  25.819  0.00  0.00    +0.198 C 
ATOM     19  O   UNL     1      18.306  56.109  25.338  0.00  0.00    -0.286 OA
ATOM     20  O   UNL     1      22.870  54.363  27.503  0.00  0.00    -0.287 OA
ATOM     23  C   UNL     1      20.670  56.160  25.286  0.00  0.00    +0.075 A 
ENDROOT
BRANCH   3   1
ATOM      1  O   UNL     1      19.578  57.518  23.609  0.00  0.00    -0.506 OA
ATOM      2  H   UNL     1      19.017  57.955  24.270  0.00  0.00    +0.292 HD
ENDBRANCH   3   1
BRANCH   8  21
ATOM     21  O   UNL     1      24.336  57.403  23.773  0.00  0.00    -0.506 OA
ATOM     22  H   UNL     1      24.251  57.586  22.821  0.00  0.00    +0.292 HD
ENDBRANCH   8  21
BRANCH   4   5
ATOM      5  C   UNL     1      21.993  58.405  22.530  0.00  0.00    +0.198 C 
BRANCH   5   6
ATOM      6  O   UNL     1      21.182  57.898  21.479  0.00  0.00    -0.390 OA
ATOM      7  H   UNL     1      20.940  56.987  21.720  0.00  0.00    +0.210 HD
ENDBRANCH   5   6
ENDBRANCH   4   5
TORSDOF 4
ENDMDL
MODEL 2
REMARK VINA RESULT:    -6.955     14.955     16.578
REMARK INTER + INTRA:          -8.204
REMARK INTER:                  -7.922
REMARK INTRA:                  -0.282
REMARK UNBOUND:                -0.232
REMARK  Name = C:\Users\HP\Downloads\Anthraquinone_pdb\AD12.pdb
REMARK  4 active torsions:
REMARK  status: ('A' for Active; 'I' for Inactive)
REMARK    1  A    between atoms: O_1  and  C_10
REMARK    2  A    between atoms: O_2  and  C_15
REMARK    3  A    between atoms: O_5  and  C_18
REMARK    4  A    between atoms: C_13  and  C_18
REMARK                            x       y       z     vdW  Elec       q    Type
REMARK                         _______ _______ _______ _____ _____    ______ ____
ROOT
ATOM      3  C   UNL     1      15.962  41.403  20.492  0.00  0.00    +0.137 A 
ATOM      4  C   UNL     1      15.025  40.833  19.630  0.00  0.00    +0.061 A 
ATOM      8  C   UNL     1      14.169  39.834  20.089  0.00  0.00    +0.126 A 
ATOM      9  C   UNL     1      14.247  39.400  21.413  0.00  0.00    +0.058 A 
ATOM     10  C   UNL     1      15.185  39.969  22.282  0.00  0.00    +0.040 A 
ATOM     11  C   UNL     1      15.260  39.504  23.682  0.00  0.00    +0.195 C 
ATOM     12  C   UNL     1      16.254  40.113  24.588  0.00  0.00    +0.033 A 
ATOM     13  C   UNL     1      16.335  39.680  25.918  0.00  0.00    +0.012 A 
ATOM     14  C   UNL     1      17.272  40.250  26.780  0.00  0.00    +0.001 A 
ATOM     15  C   UNL     1      18.128  41.249  26.321  0.00  0.00    +0.001 A 
ATOM     16  C   UNL     1      18.050  41.684  24.997  0.00  0.00    +0.012 A 
ATOM     17  C   UNL     1      17.112  41.114  24.128  0.00  0.00    +0.033 A 
ATOM     18  C   UNL     1      17.038  41.580  22.728  0.00  0.00    +0.198 C 
ATOM     19  O   UNL     1      17.802  42.460  22.351  0.00  0.00    -0.286 OA
ATOM     20  O   UNL     1      14.506  38.626  24.086  0.00  0.00    -0.287 OA
ATOM     23  C   UNL     1      16.042  40.970  21.822  0.00  0.00    +0.075 A 
ENDROOT
BRANCH   3   1
ATOM      1  O   UNL     1      16.778  42.379  19.998  0.00  0.00    -0.506 OA
ATOM      2  H   UNL     1      16.330  42.854  19.280  0.00  0.00    +0.292 HD
ENDBRANCH   3   1
BRANCH   8  21
ATOM     21  O   UNL     1      13.250  39.267  19.258  0.00  0.00    -0.506 OA
ATOM     22  H   UNL     1      13.328  38.299  19.308  0.00  0.00    +0.292 HD
ENDBRANCH   8  21
BRANCH   4   5
ATOM      5  C   UNL     1      14.935  41.291  18.208  0.00  0.00    +0.198 C 
BRANCH   5   6
ATOM      6  O   UNL     1      14.342  42.582  18.170  0.00  0.00    -0.390 OA
ATOM      7  H   UNL     1      13.379  42.452  18.126  0.00  0.00    +0.210 HD
ENDBRANCH   5   6
ENDBRANCH   4   5
TORSDOF 4
ENDMDL
MODEL 3
REMARK VINA RESULT:    -6.740      2.175      5.519
REMARK INTER + INTRA:          -7.957
REMARK INTER:                  -7.684
REMARK INTRA:                  -0.273
REMARK UNBOUND:                -0.232
REMARK  Name = C:\Users\HP\Downloads\Anthraquinone_pdb\AD12.pdb
REMARK  4 active torsions:
REMARK  status: ('A' for Active; 'I' for Inactive)
REMARK    1  A    between atoms: O_1  and  C_10
REMARK    2  A    between atoms: O_2  and  C_15
REMARK    3  A    between atoms: O_5  and  C_18
REMARK    4  A    between atoms: C_13  and  C_18
REMARK                            x       y       z     vdW  Elec       q    Type
REMARK                         _______ _______ _______ _____ _____    ______ ____
ROOT
ATOM      3  C   UNL     1      18.112  54.877  26.076  0.00  0.00    +0.137 A 
ATOM      4  C   UNL     1      17.401  53.995  26.889  0.00  0.00    +0.061 A 
ATOM      8  C   UNL     1      17.918  53.610  28.125  0.00  0.00    +0.126 A 
ATOM      9  C   UNL     1      19.150  54.106  28.552  0.00  0.00    +0.058 A 
ATOM     10  C   UNL     1      19.868  54.991  27.739  0.00  0.00    +0.040 A 
ATOM     11  C   UNL     1      21.172  55.511  28.200  0.00  0.00    +0.195 C 
ATOM     12  C   UNL     1      21.919  56.445  27.333  0.00  0.00    +0.033 A 
ATOM     13  C   UNL     1      23.156  56.945  27.758  0.00  0.00    +0.012 A 
ATOM     14  C   UNL     1      23.868  57.826  26.944  0.00  0.00    +0.001 A 
ATOM     15  C   UNL     1      23.351  58.211  25.709  0.00  0.00    +0.001 A 
ATOM     16  C   UNL     1      22.118  57.716  25.282  0.00  0.00    +0.012 A 
ATOM     17  C   UNL     1      21.400  56.831  26.095  0.00  0.00    +0.033 A 
ATOM     18  C   UNL     1      20.096  56.311  25.634  0.00  0.00    +0.198 C 
ATOM     19  O   UNL     1      19.665  56.665  24.544  0.00  0.00    -0.286 OA
ATOM     20  O   UNL     1      21.626  55.174  29.287  0.00  0.00    -0.287 OA
ATOM     23  C   UNL     1      19.349  55.377  26.502  0.00  0.00    +0.075 A 
ENDROOT
BRANCH   3   1
ATOM      1  O   UNL     1      17.565  55.226  24.876  0.00  0.00    -0.506 OA
ATOM      2  H   UNL     1      16.610  55.052  24.883  0.00  0.00    +0.292 HD
ENDBRANCH   3   1
BRANCH   8  21
ATOM     21  O   UNL     1      17.234  52.749  28.930  0.00  0.00    -0.506 OA
ATOM     22  H   UNL     1      17.366  53.007  29.859  0.00  0.00    +0.292 HD
ENDBRANCH   8  21
BRANCH   4   5
ATOM      5  C   UNL     1      16.078  53.458  26.440  0.00  0.00    +0.198 C 
BRANCH   5   6
ATOM      6  O   UNL     1      16.125  52.037  26.444  0.00  0.00    -0.390 OA
ATOM      7  H   UNL     1      16.378  51.758  25.548  0.00  0.00    +0.210 HD
ENDBRANCH   5   6
ENDBRANCH   4   5
TORSDOF 4
ENDMDL
MODEL 4
REMARK VINA RESULT:    -6.727     26.050     28.027
REMARK INTER + INTRA:          -7.943
REMARK INTER:                  -7.680
REMARK INTRA:                  -0.263
REMARK UNBOUND:                -0.232
REMARK  Name = C:\Users\HP\Downloads\Anthraquinone_pdb\AD12.pdb
REMARK  4 active torsions:
REMARK  status: ('A' for Active; 'I' for Inactive)
REMARK    1  A    between atoms: O_1  and  C_10
REMARK    2  A    between atoms: O_2  and  C_15
REMARK    3  A    between atoms: O_5  and  C_18
REMARK    4  A    between atoms: C_13  and  C_18
REMARK                            x       y       z     vdW  Elec       q    Type
REMARK                         _______ _______ _______ _____ _____    ______ ____
ROOT
ATOM      3  C   UNL     1      18.357  70.874   4.209  0.00  0.00    +0.137 A 
ATOM      4  C   UNL     1      19.321  71.883   4.202  0.00  0.00    +0.061 A 
ATOM      8  C   UNL     1      19.674  72.505   3.007  0.00  0.00    +0.126 A 
ATOM      9  C   UNL     1      19.065  72.120   1.812  0.00  0.00    +0.058 A 
ATOM     10  C   UNL     1      18.098  71.108   1.813  0.00  0.00    +0.040 A 
ATOM     11  C   UNL     1      17.459  70.707   0.543  0.00  0.00    +0.195 C 
ATOM     12  C   UNL     1      16.439  69.639   0.559  0.00  0.00    +0.033 A 
ATOM     13  C   UNL     1      15.827  69.250  -0.639  0.00  0.00    +0.012 A 
ATOM     14  C   UNL     1      14.864  68.241  -0.632  0.00  0.00    +0.001 A 
ATOM     15  C   UNL     1      14.510  67.619   0.563  0.00  0.00    +0.001 A 
ATOM     16  C   UNL     1      15.118  68.004   1.759  0.00  0.00    +0.012 A 
ATOM     17  C   UNL     1      16.085  69.016   1.757  0.00  0.00    +0.033 A 
ATOM     18  C   UNL     1      16.724  69.416   3.028  0.00  0.00    +0.198 C 
ATOM     19  O   UNL     1      16.395  68.853   4.064  0.00  0.00    -0.286 OA
ATOM     20  O   UNL     1      17.768  71.255  -0.508  0.00  0.00    -0.287 OA
ATOM     23  C   UNL     1      17.744  70.485   3.011  0.00  0.00    +0.075 A 
ENDROOT
BRANCH   3   1
ATOM      1  O   UNL     1      18.043  70.295   5.404  0.00  0.00    -0.506 OA
ATOM      2  H   UNL     1      17.381  70.832   5.869  0.00  0.00    +0.292 HD
ENDBRANCH   3   1
BRANCH   8  21
ATOM     21  O   UNL     1      20.614  73.491   2.985  0.00  0.00    -0.506 OA
ATOM     22  H   UNL     1      20.934  73.607   2.073  0.00  0.00    +0.292 HD
ENDBRANCH   8  21
BRANCH   4   5
ATOM      5  C   UNL     1      19.979  72.302   5.479  0.00  0.00    +0.198 C 
BRANCH   5   6
ATOM      6  O   UNL     1      20.589  71.170   6.085  0.00  0.00    -0.390 OA
ATOM      7  H   UNL     1      19.927  70.458   6.088  0.00  0.00    +0.210 HD
ENDBRANCH   5   6
ENDBRANCH   4   5
TORSDOF 4
ENDMDL
MODEL 5
REMARK VINA RESULT:    -6.722      4.037      5.422
REMARK INTER + INTRA:          -7.937
REMARK INTER:                  -7.653
REMARK INTRA:                  -0.284
REMARK UNBOUND:                -0.232
REMARK  Name = C:\Users\HP\Downloads\Anthraquinone_pdb\AD12.pdb
REMARK  4 active torsions:
REMARK  status: ('A' for Active; 'I' for Inactive)
REMARK    1  A    between atoms: O_1  and  C_10
REMARK    2  A    between atoms: O_2  and  C_15
REMARK    3  A    between atoms: O_5  and  C_18
REMARK    4  A    between atoms: C_13  and  C_18
REMARK                            x       y       z     vdW  Elec       q    Type
REMARK                         _______ _______ _______ _____ _____    ______ ____
ROOT
ATOM      3  C   UNL     1      17.507  55.327  27.532  0.00  0.00    +0.137 A 
ATOM      4  C   UNL     1      18.290  54.662  26.589  0.00  0.00    +0.061 A 
ATOM      8  C   UNL     1      19.611  55.052  26.376  0.00  0.00    +0.126 A 
ATOM      9  C   UNL     1      20.154  56.109  27.107  0.00  0.00    +0.058 A 
ATOM     10  C   UNL     1      19.373  56.779  28.054  0.00  0.00    +0.040 A 
ATOM     11  C   UNL     1      19.956  57.897  28.823  0.00  0.00    +0.195 C 
ATOM     12  C   UNL     1      19.120  58.596  29.821  0.00  0.00    +0.033 A 
ATOM     13  C   UNL     1      19.662  59.657  30.556  0.00  0.00    +0.012 A 
ATOM     14  C   UNL     1      18.879  60.323  31.499  0.00  0.00    +0.001 A 
ATOM     15  C   UNL     1      17.558  59.933  31.712  0.00  0.00    +0.001 A 
ATOM     16  C   UNL     1      17.014  58.875  30.982  0.00  0.00    +0.012 A 
ATOM     17  C   UNL     1      17.797  58.205  30.034  0.00  0.00    +0.033 A 
ATOM     18  C   UNL     1      17.212  57.087  29.265  0.00  0.00    +0.198 C 
ATOM     19  O   UNL     1      16.049  56.765  29.472  0.00  0.00    -0.286 OA
ATOM     20  O   UNL     1      21.118  58.239  28.638  0.00  0.00    -0.287 OA
ATOM     23  C   UNL     1      18.049  56.388  28.267  0.00  0.00    +0.075 A 
ENDROOT
BRANCH   3   1
ATOM      1  O   UNL     1      16.220  54.909  27.706  0.00  0.00    -0.506 OA
ATOM      2  H   UNL     1      16.182  54.227  28.397  0.00  0.00    +0.292 HD
ENDBRANCH   3   1
BRANCH   8  21
ATOM     21  O   UNL     1      20.388  54.411  25.457  0.00  0.00    -0.506 OA
ATOM     22  H   UNL     1      21.322  54.491  25.719  0.00  0.00    +0.292 HD
ENDBRANCH   8  21
BRANCH   4   5
ATOM      5  C   UNL     1      17.716  53.527  25.800  0.00  0.00    +0.198 C 
BRANCH   5   6
ATOM      6  O   UNL     1      16.790  54.038  24.851  0.00  0.00    -0.390 OA
ATOM      7  H   UNL     1      17.005  54.978  24.721  0.00  0.00    +0.210 HD
ENDBRANCH   5   6
ENDBRANCH   4   5
TORSDOF 4
ENDMDL
MODEL 6
REMARK VINA RESULT:    -6.677     15.120     16.567
REMARK INTER + INTRA:          -7.885
REMARK INTER:                  -7.603
REMARK INTRA:                  -0.282
REMARK UNBOUND:                -0.232
REMARK  Name = C:\Users\HP\Downloads\Anthraquinone_pdb\AD12.pdb
REMARK  4 active torsions:
REMARK  status: ('A' for Active; 'I' for Inactive)
REMARK    1  A    between atoms: O_1  and  C_10
REMARK    2  A    between atoms: O_2  and  C_15
REMARK    3  A    between atoms: O_5  and  C_18
REMARK    4  A    between atoms: C_13  and  C_18
REMARK                            x       y       z     vdW  Elec       q    Type
REMARK                         _______ _______ _______ _____ _____    ______ ____
ROOT
ATOM      3  C   UNL     1      15.375  40.292  20.782  0.00  0.00    +0.137 A 
ATOM      4  C   UNL     1      15.386  41.472  20.039  0.00  0.00    +0.061 A 
ATOM      8  C   UNL     1      16.085  42.584  20.501  0.00  0.00    +0.126 A 
ATOM      9  C   UNL     1      16.778  42.521  21.710  0.00  0.00    +0.058 A 
ATOM     10  C   UNL     1      16.771  41.340  22.461  0.00  0.00    +0.040 A 
ATOM     11  C   UNL     1      17.507  41.282  23.740  0.00  0.00    +0.195 C 
ATOM     12  C   UNL     1      17.491  40.028  24.522  0.00  0.00    +0.033 A 
ATOM     13  C   UNL     1      18.185  39.962  25.736  0.00  0.00    +0.012 A 
ATOM     14  C   UNL     1      18.174  38.782  26.480  0.00  0.00    +0.001 A 
ATOM     15  C   UNL     1      17.474  37.670  26.018  0.00  0.00    +0.001 A 
ATOM     16  C   UNL     1      16.782  37.732  24.808  0.00  0.00    +0.012 A 
ATOM     17  C   UNL     1      16.790  38.914  24.058  0.00  0.00    +0.033 A 
ATOM     18  C   UNL     1      16.053  38.971  22.778  0.00  0.00    +0.198 C 
ATOM     19  O   UNL     1      15.446  37.979  22.395  0.00  0.00    -0.286 OA
ATOM     20  O   UNL     1      18.124  42.260  24.146  0.00  0.00    -0.287 OA
ATOM     23  C   UNL     1      16.069  40.225  21.997  0.00  0.00    +0.075 A 
ENDROOT
BRANCH   3   1
ATOM      1  O   UNL     1      14.676  39.229  20.289  0.00  0.00    -0.506 OA
ATOM      2  H   UNL     1      13.743  39.470  20.172  0.00  0.00    +0.292 HD
ENDBRANCH   3   1
BRANCH   8  21
ATOM     21  O   UNL     1      16.104  43.744  19.785  0.00  0.00    -0.506 OA
ATOM     22  H   UNL     1      16.676  44.388  20.237  0.00  0.00    +0.292 HD
ENDBRANCH   8  21
BRANCH   4   5
ATOM      5  C   UNL     1      14.645  41.549  18.740  0.00  0.00    +0.198 C 
BRANCH   5   6
ATOM      6  O   UNL     1      15.195  40.605  17.831  0.00  0.00    -0.390 OA
ATOM      7  H   UNL     1      15.290  41.056  16.975  0.00  0.00    +0.210 HD
ENDBRANCH   5   6
ENDBRANCH   4   5
TORSDOF 4
ENDMDL
MODEL 7
REMARK VINA RESULT:    -6.443      7.499      9.257
REMARK INTER + INTRA:          -7.617
REMARK INTER:                  -7.343
REMARK INTRA:                  -0.274
REMARK UNBOUND:                -0.232
REMARK  Name = C:\Users\HP\Downloads\Anthraquinone_pdb\AD12.pdb
REMARK  4 active torsions:
REMARK  status: ('A' for Active; 'I' for Inactive)
REMARK    1  A    between atoms: O_1  and  C_10
REMARK    2  A    between atoms: O_2  and  C_15
REMARK    3  A    between atoms: O_5  and  C_18
REMARK    4  A    between atoms: C_13  and  C_18
REMARK                            x       y       z     vdW  Elec       q    Type
REMARK                         _______ _______ _______ _____ _____    ______ ____
ROOT
ATOM      3  C   UNL     1      17.573  62.231  31.263  0.00  0.00    +0.137 A 
ATOM      4  C   UNL     1      17.035  61.332  32.184  0.00  0.00    +0.061 A 
ATOM      8  C   UNL     1      17.520  60.027  32.255  0.00  0.00    +0.126 A 
ATOM      9  C   UNL     1      18.546  59.617  31.403  0.00  0.00    +0.058 A 
ATOM     10  C   UNL     1      19.089  60.514  30.477  0.00  0.00    +0.040 A 
ATOM     11  C   UNL     1      20.175  60.071  29.580  0.00  0.00    +0.195 C 
ATOM     12  C   UNL     1      20.740  61.029  28.607  0.00  0.00    +0.033 A 
ATOM     13  C   UNL     1      21.770  60.620  27.751  0.00  0.00    +0.012 A 
ATOM     14  C   UNL     1      22.307  61.519  26.830  0.00  0.00    +0.001 A 
ATOM     15  C   UNL     1      21.822  62.823  26.760  0.00  0.00    +0.001 A 
ATOM     16  C   UNL     1      20.796  63.235  27.612  0.00  0.00    +0.012 A 
ATOM     17  C   UNL     1      20.253  62.336  28.538  0.00  0.00    +0.033 A 
ATOM     18  C   UNL     1      19.167  62.781  29.435  0.00  0.00    +0.198 C 
ATOM     19  O   UNL     1      18.759  63.932  29.352  0.00  0.00    -0.286 OA
ATOM     20  O   UNL     1      20.604  58.924  29.642  0.00  0.00    -0.287 OA
ATOM     23  C   UNL     1      18.603  61.821  30.407  0.00  0.00    +0.075 A 
ENDROOT
BRANCH   3   1
ATOM      1  O   UNL     1      17.066  63.497  31.232  0.00  0.00    -0.506 OA
ATOM      2  H   UNL     1      17.738  64.116  30.904  0.00  0.00    +0.292 HD
ENDBRANCH   3   1
BRANCH   8  21
ATOM     21  O   UNL     1      17.004  59.138  33.149  0.00  0.00    -0.506 OA
ATOM     22  H   UNL     1      16.474  59.620  33.808  0.00  0.00    +0.292 HD
ENDBRANCH   8  21
BRANCH   4   5
ATOM      5  C   UNL     1      15.933  61.763  33.102  0.00  0.00    +0.198 C 
BRANCH   5   6
ATOM      6  O   UNL     1      14.820  62.189  32.328  0.00  0.00    -0.390 OA
ATOM      7  H   UNL     1      14.238  61.419  32.217  0.00  0.00    +0.210 HD
ENDBRANCH   5   6
ENDBRANCH   4   5
TORSDOF 4
ENDMDL
MODEL 8
REMARK VINA RESULT:    -6.392      4.368      6.517
REMARK INTER + INTRA:          -7.558
REMARK INTER:                  -7.270
REMARK INTRA:                  -0.288
REMARK UNBOUND:                -0.232
REMARK  Name = C:\Users\HP\Downloads\Anthraquinone_pdb\AD12.pdb
REMARK  4 active torsions:
REMARK  status: ('A' for Active; 'I' for Inactive)
REMARK    1  A    between atoms: O_1  and  C_10
REMARK    2  A    between atoms: O_2  and  C_15
REMARK    3  A    between atoms: O_5  and  C_18
REMARK    4  A    between atoms: C_13  and  C_18
REMARK                            x       y       z     vdW  Elec       q    Type
REMARK                         _______ _______ _______ _____ _____    ______ ____
ROOT
ATOM      3  C   UNL     1      19.499  58.420  29.751  0.00  0.00    +0.137 A 
ATOM      4  C   UNL     1      18.744  59.115  30.696  0.00  0.00    +0.061 A 
ATOM      8  C   UNL     1      17.383  58.851  30.836  0.00  0.00    +0.126 A 
ATOM      9  C   UNL     1      16.771  57.890  30.031  0.00  0.00    +0.058 A 
ATOM     10  C   UNL     1      17.524  57.190  29.081  0.00  0.00    +0.040 A 
ATOM     11  C   UNL     1      16.867  56.174  28.232  0.00  0.00    +0.195 C 
ATOM     12  C   UNL     1      17.674  55.443  27.234  0.00  0.00    +0.033 A 
ATOM     13  C   UNL     1      17.063  54.478  26.424  0.00  0.00    +0.012 A 
ATOM     14  C   UNL     1      17.818  53.784  25.478  0.00  0.00    +0.001 A 
ATOM     15  C   UNL     1      19.178  54.048  25.338  0.00  0.00    +0.001 A 
ATOM     16  C   UNL     1      19.791  55.008  26.144  0.00  0.00    +0.012 A 
ATOM     17  C   UNL     1      19.038  55.708  27.094  0.00  0.00    +0.033 A 
ATOM     18  C   UNL     1      19.695  56.723  27.943  0.00  0.00    +0.198 C 
ATOM     19  O   UNL     1      20.893  56.936  27.799  0.00  0.00    -0.286 OA
ATOM     20  O   UNL     1      15.671  55.941  28.356  0.00  0.00    -0.287 OA
ATOM     23  C   UNL     1      18.888  57.455  28.941  0.00  0.00    +0.075 A 
ENDROOT
BRANCH   3   1
ATOM      1  O   UNL     1      20.828  58.712  29.651  0.00  0.00    -0.506 OA
ATOM      2  H   UNL     1      21.356  57.909  29.789  0.00  0.00    +0.292 HD
ENDBRANCH   3   1
BRANCH   8  21
ATOM     21  O   UNL     1      16.633  59.522  31.755  0.00  0.00    -0.506 OA
ATOM     22  H   UNL     1      15.855  59.905  31.313  0.00  0.00    +0.292 HD
ENDBRANCH   8  21
BRANCH   4   5
ATOM      5  C   UNL     1      19.392  60.147  31.565  0.00  0.00    +0.198 C 
BRANCH   5   6
ATOM      6  O   UNL     1      19.362  59.707  32.915  0.00  0.00    -0.390 OA
ATOM      7  H   UNL     1      20.264  59.800  33.266  0.00  0.00    +0.210 HD
ENDBRANCH   5   6
ENDBRANCH   4   5
TORSDOF 4
ENDMDL
MODEL 9
REMARK VINA RESULT:    -6.110     21.122     22.881
REMARK INTER + INTRA:          -7.235
REMARK INTER:                  -6.967
REMARK INTRA:                  -0.268
REMARK UNBOUND:                -0.232
REMARK  Name = C:\Users\HP\Downloads\Anthraquinone_pdb\AD12.pdb
REMARK  4 active torsions:
REMARK  status: ('A' for Active; 'I' for Inactive)
REMARK    1  A    between atoms: O_1  and  C_10
REMARK    2  A    between atoms: O_2  and  C_15
REMARK    3  A    between atoms: O_5  and  C_18
REMARK    4  A    between atoms: C_13  and  C_18
REMARK                            x       y       z     vdW  Elec       q    Type
REMARK                         _______ _______ _______ _____ _____    ______ ____
ROOT
ATOM      3  C   UNL     1      23.833  64.397   4.274  0.00  0.00    +0.137 A 
ATOM      4  C   UNL     1      24.603  64.779   5.373  0.00  0.00    +0.061 A 
ATOM      8  C   UNL     1      24.978  63.835   6.327  0.00  0.00    +0.126 A 
ATOM      9  C   UNL     1      24.585  62.504   6.185  0.00  0.00    +0.058 A 
ATOM     10  C   UNL     1      23.812  62.115   5.085  0.00  0.00    +0.040 A 
ATOM     11  C   UNL     1      23.400  60.704   4.944  0.00  0.00    +0.195 C 
ATOM     12  C   UNL     1      22.585  60.307   3.777  0.00  0.00    +0.033 A 
ATOM     13  C   UNL     1      22.188  58.972   3.632  0.00  0.00    +0.012 A 
ATOM     14  C   UNL     1      21.417  58.591   2.534  0.00  0.00    +0.001 A 
ATOM     15  C   UNL     1      21.041  59.534   1.581  0.00  0.00    +0.001 A 
ATOM     16  C   UNL     1      21.435  60.866   1.721  0.00  0.00    +0.012 A 
ATOM     17  C   UNL     1      22.209  61.254   2.822  0.00  0.00    +0.033 A 
ATOM     18  C   UNL     1      22.620  62.666   2.962  0.00  0.00    +0.198 C 
ATOM     19  O   UNL     1      22.276  63.475   2.110  0.00  0.00    -0.286 OA
ATOM     20  O   UNL     1      23.732  59.873   5.781  0.00  0.00    -0.287 OA
ATOM     23  C   UNL     1      23.436  63.062   4.130  0.00  0.00    +0.075 A 
ENDROOT
BRANCH   3   1
ATOM      1  O   UNL     1      23.490  65.356   3.367  0.00  0.00    -0.506 OA
ATOM      2  H   UNL     1      23.371  66.210   3.815  0.00  0.00    +0.292 HD
ENDBRANCH   3   1
BRANCH   8  21
ATOM     21  O   UNL     1      25.730  64.194   7.405  0.00  0.00    -0.506 OA
ATOM     22  H   UNL     1      26.610  63.784   7.331  0.00  0.00    +0.292 HD
ENDBRANCH   8  21
BRANCH   4   5
ATOM      5  C   UNL     1      25.029  66.205   5.533  0.00  0.00    +0.198 C 
BRANCH   5   6
ATOM      6  O   UNL     1      23.878  67.037   5.563  0.00  0.00    -0.390 OA
ATOM      7  H   UNL     1      23.465  66.922   6.436  0.00  0.00    +0.210 HD
ENDBRANCH   5   6
ENDBRANCH   4   5
TORSDOF 4
ENDMDL
