MODEL 1
REMARK VINA RESULT:    -7.301      0.000      0.000
REMARK INTER + INTRA:          -7.942
REMARK INTER:                  -7.942
REMARK INTRA:                   0.000
REMARK UNBOUND:                 0.000
REMARK  Name = C:\Users\HP\Downloads\Anthraquinone_pdb\AD13.pdb
REMARK  3 active torsions:
REMARK  status: ('A' for Active; 'I' for Inactive)
REMARK    1  A    between atoms: O_1  and  C_12
REMARK    2  A    between atoms: O_4  and  C_14
REMARK    3  A    between atoms: O_5  and  C_15
REMARK                            x       y       z     vdW  Elec       q    Type
REMARK                         _______ _______ _______ _____ _____    ______ ____
ROOT
ATOM      3  C   UNL     1      20.877  57.064  23.883  0.00  0.00    +0.174 A 
ATOM      4  C   UNL     1      22.129  57.392  23.358  0.00  0.00    +0.201 A 
ATOM      5  C   UNL     1      23.286  56.882  23.942  0.00  0.00    +0.163 A 
ATOM      6  C   UNL     1      23.199  56.042  25.053  0.00  0.00    +0.061 A 
ATOM      7  C   UNL     1      21.946  55.710  25.582  0.00  0.00    +0.040 A 
ATOM      8  C   UNL     1      21.863  54.820  26.758  0.00  0.00    +0.195 C 
ATOM      9  C   UNL     1      20.535  54.479  27.307  0.00  0.00    +0.033 A 
ATOM     10  C   UNL     1      20.443  53.638  28.422  0.00  0.00    +0.012 A 
ATOM     11  C   UNL     1      19.192  53.310  28.947  0.00  0.00    +0.001 A 
ATOM     12  C   UNL     1      18.034  53.820  28.363  0.00  0.00    +0.001 A 
ATOM     13  C   UNL     1      18.121  54.659  27.252  0.00  0.00    +0.012 A 
ATOM     14  C   UNL     1      19.375  54.990  26.722  0.00  0.00    +0.033 A 
ATOM     15  C   UNL     1      19.457  55.879  25.546  0.00  0.00    +0.198 C 
ATOM     16  O   UNL     1      18.424  56.312  25.052  0.00  0.00    -0.286 OA
ATOM     17  O   UNL     1      22.880  54.372  27.271  0.00  0.00    -0.287 OA
ATOM     22  C   UNL     1      20.785  56.222  24.997  0.00  0.00    +0.078 A 
ENDROOT
BRANCH   3   1
ATOM      1  O   UNL     1      19.775  57.591  23.275  0.00  0.00    -0.503 OA
ATOM      2  H   UNL     1      20.026  58.260  22.620  0.00  0.00    +0.292 HD
ENDBRANCH   3   1
BRANCH   5  18
ATOM     18  O   UNL     1      24.512  57.197  23.438  0.00  0.00    -0.503 OA
ATOM     19  H   UNL     1      24.834  57.995  23.891  0.00  0.00    +0.292 HD
ENDBRANCH   5  18
BRANCH   4  20
ATOM     20  O   UNL     1      22.222  58.213  22.273  0.00  0.00    -0.501 OA
ATOM     21  H   UNL     1      22.643  59.045  22.553  0.00  0.00    +0.292 HD
ENDBRANCH   4  20
TORSDOF 3
ENDMDL
MODEL 2
REMARK VINA RESULT:    -7.165      3.386      5.372
REMARK INTER + INTRA:          -7.793
REMARK INTER:                  -7.793
REMARK INTRA:                   0.000
REMARK UNBOUND:                 0.000
REMARK  Name = C:\Users\HP\Downloads\Anthraquinone_pdb\AD13.pdb
REMARK  3 active torsions:
REMARK  status: ('A' for Active; 'I' for Inactive)
REMARK    1  A    between atoms: O_1  and  C_12
REMARK    2  A    between atoms: O_4  and  C_14
REMARK    3  A    between atoms: O_5  and  C_15
REMARK                            x       y       z     vdW  Elec       q    Type
REMARK                         _______ _______ _______ _____ _____    ______ ____
ROOT
ATOM      3  C   UNL     1      19.497  55.138  25.902  0.00  0.00    +0.174 A 
ATOM      4  C   UNL     1      18.764  54.092  25.338  0.00  0.00    +0.201 A 
ATOM      5  C   UNL     1      17.502  53.777  25.836  0.00  0.00    +0.163 A 
ATOM      6  C   UNL     1      16.966  54.504  26.898  0.00  0.00    +0.061 A 
ATOM      7  C   UNL     1      17.697  55.554  27.466  0.00  0.00    +0.040 A 
ATOM      8  C   UNL     1      17.122  56.319  28.591  0.00  0.00    +0.195 C 
ATOM      9  C   UNL     1      17.904  57.423  29.183  0.00  0.00    +0.033 A 
ATOM     10  C   UNL     1      17.371  58.155  30.251  0.00  0.00    +0.012 A 
ATOM     11  C   UNL     1      18.104  59.200  30.814  0.00  0.00    +0.001 A 
ATOM     12  C   UNL     1      19.366  59.516  30.318  0.00  0.00    +0.001 A 
ATOM     13  C   UNL     1      19.902  58.790  29.255  0.00  0.00    +0.012 A 
ATOM     14  C   UNL     1      19.170  57.740  28.685  0.00  0.00    +0.033 A 
ATOM     15  C   UNL     1      19.745  56.976  27.560  0.00  0.00    +0.198 C 
ATOM     16  O   UNL     1      20.857  57.275  27.142  0.00  0.00    -0.286 OA
ATOM     17  O   UNL     1      16.011  56.042  29.029  0.00  0.00    -0.287 OA
ATOM     22  C   UNL     1      18.963  55.870  26.969  0.00  0.00    +0.078 A 
ENDROOT
BRANCH   3   1
ATOM      1  O   UNL     1      20.729  55.405  25.379  0.00  0.00    -0.503 OA
ATOM      2  H   UNL     1      21.403  54.826  25.765  0.00  0.00    +0.292 HD
ENDBRANCH   3   1
BRANCH   5  18
ATOM     18  O   UNL     1      16.779  52.757  25.292  0.00  0.00    -0.503 OA
ATOM     19  H   UNL     1      15.989  52.615  25.841  0.00  0.00    +0.292 HD
ENDBRANCH   5  18
BRANCH   4  20
ATOM     20  O   UNL     1      19.282  53.376  24.300  0.00  0.00    -0.501 OA
ATOM     21  H   UNL     1      18.736  53.538  23.511  0.00  0.00    +0.292 HD
ENDBRANCH   4  20
TORSDOF 3
ENDMDL
MODEL 3
REMARK VINA RESULT:    -6.851     15.066     16.555
REMARK INTER + INTRA:          -7.452
REMARK INTER:                  -7.452
REMARK INTRA:                   0.000
REMARK UNBOUND:                 0.000
REMARK  Name = C:\Users\HP\Downloads\Anthraquinone_pdb\AD13.pdb
REMARK  3 active torsions:
REMARK  status: ('A' for Active; 'I' for Inactive)
REMARK    1  A    between atoms: O_1  and  C_12
REMARK    2  A    between atoms: O_4  and  C_14
REMARK    3  A    between atoms: O_5  and  C_15
REMARK                            x       y       z     vdW  Elec       q    Type
REMARK                         _______ _______ _______ _____ _____    ______ ____
ROOT
ATOM      3  C   UNL     1      16.121  41.326  20.541  0.00  0.00    +0.174 A 
ATOM      4  C   UNL     1      15.209  40.772  19.642  0.00  0.00    +0.201 A 
ATOM      5  C   UNL     1      14.271  39.841  20.083  0.00  0.00    +0.163 A 
ATOM      6  C   UNL     1      14.239  39.460  21.425  0.00  0.00    +0.061 A 
ATOM      7  C   UNL     1      15.151  40.014  22.330  0.00  0.00    +0.040 A 
ATOM      8  C   UNL     1      15.111  39.605  23.749  0.00  0.00    +0.195 C 
ATOM      9  C   UNL     1      16.081  40.196  24.694  0.00  0.00    +0.033 A 
ATOM     10  C   UNL     1      16.054  39.816  26.041  0.00  0.00    +0.012 A 
ATOM     11  C   UNL     1      16.966  40.370  26.940  0.00  0.00    +0.001 A 
ATOM     12  C   UNL     1      17.904  41.301  26.500  0.00  0.00    +0.001 A 
ATOM     13  C   UNL     1      17.935  41.683  25.159  0.00  0.00    +0.012 A 
ATOM     14  C   UNL     1      17.021  41.129  24.252  0.00  0.00    +0.033 A 
ATOM     15  C   UNL     1      17.061  41.539  22.834  0.00  0.00    +0.198 C 
ATOM     16  O   UNL     1      17.896  42.360  22.474  0.00  0.00    -0.286 OA
ATOM     17  O   UNL     1      14.287  38.787  24.137  0.00  0.00    -0.287 OA
ATOM     22  C   UNL     1      16.093  40.947  21.889  0.00  0.00    +0.078 A 
ENDROOT
BRANCH   3   1
ATOM      1  O   UNL     1      17.019  42.232  20.058  0.00  0.00    -0.503 OA
ATOM      2  H   UNL     1      17.043  42.215  19.089  0.00  0.00    +0.292 HD
ENDBRANCH   3   1
BRANCH   5  18
ATOM     18  O   UNL     1      13.377  39.294  19.212  0.00  0.00    -0.503 OA
ATOM     19  H   UNL     1      13.137  38.408  19.535  0.00  0.00    +0.292 HD
ENDBRANCH   5  18
BRANCH   4  20
ATOM     20  O   UNL     1      15.234  41.139  18.328  0.00  0.00    -0.501 OA
ATOM     21  H   UNL     1      14.360  41.495  18.092  0.00  0.00    +0.292 HD
ENDBRANCH   4  20
TORSDOF 3
ENDMDL
MODEL 4
REMARK VINA RESULT:    -6.711      1.735      5.409
REMARK INTER + INTRA:          -7.300
REMARK INTER:                  -7.300
REMARK INTRA:                   0.000
REMARK UNBOUND:                 0.000
REMARK  Name = C:\Users\HP\Downloads\Anthraquinone_pdb\AD13.pdb
REMARK  3 active torsions:
REMARK  status: ('A' for Active; 'I' for Inactive)
REMARK    1  A    between atoms: O_1  and  C_12
REMARK    2  A    between atoms: O_4  and  C_14
REMARK    3  A    between atoms: O_5  and  C_15
REMARK                            x       y       z     vdW  Elec       q    Type
REMARK                         _______ _______ _______ _____ _____    ______ ____
ROOT
ATOM      3  C   UNL     1      18.395  54.485  27.341  0.00  0.00    +0.174 A 
ATOM      4  C   UNL     1      18.417  53.569  28.394  0.00  0.00    +0.201 A 
ATOM      5  C   UNL     1      19.629  53.044  28.837  0.00  0.00    +0.163 A 
ATOM      6  C   UNL     1      20.824  53.431  28.230  0.00  0.00    +0.061 A 
ATOM      7  C   UNL     1      20.807  54.350  27.175  0.00  0.00    +0.040 A 
ATOM      8  C   UNL     1      22.076  54.754  26.538  0.00  0.00    +0.195 C 
ATOM      9  C   UNL     1      22.044  55.723  25.423  0.00  0.00    +0.033 A 
ATOM     10  C   UNL     1      23.241  56.114  24.811  0.00  0.00    +0.012 A 
ATOM     11  C   UNL     1      23.219  57.029  23.758  0.00  0.00    +0.001 A 
ATOM     12  C   UNL     1      22.007  57.555  23.314  0.00  0.00    +0.001 A 
ATOM     13  C   UNL     1      20.812  57.169  23.921  0.00  0.00    +0.012 A 
ATOM     14  C   UNL     1      20.830  56.250  24.978  0.00  0.00    +0.033 A 
ATOM     15  C   UNL     1      19.560  55.847  25.615  0.00  0.00    +0.198 C 
ATOM     16  O   UNL     1      18.509  56.325  25.206  0.00  0.00    -0.286 OA
ATOM     17  O   UNL     1      23.142  54.293  26.927  0.00  0.00    -0.287 OA
ATOM     22  C   UNL     1      19.592  54.877  26.729  0.00  0.00    +0.078 A 
ENDROOT
BRANCH   3   1
ATOM      1  O   UNL     1      17.182  54.969  26.944  0.00  0.00    -0.503 OA
ATOM      2  H   UNL     1      16.488  54.303  27.061  0.00  0.00    +0.292 HD
ENDBRANCH   3   1
BRANCH   5  18
ATOM     18  O   UNL     1      19.661  52.149  29.864  0.00  0.00    -0.503 OA
ATOM     19  H   UNL     1      19.131  51.373  29.611  0.00  0.00    +0.292 HD
ENDBRANCH   5  18
BRANCH   4  20
ATOM     20  O   UNL     1      17.253  53.186  28.991  0.00  0.00    -0.501 OA
ATOM     21  H   UNL     1      17.220  52.213  29.005  0.00  0.00    +0.292 HD
ENDBRANCH   4  20
TORSDOF 3
ENDMDL
MODEL 5
REMARK VINA RESULT:    -6.572     25.799     27.667
REMARK INTER + INTRA:          -7.148
REMARK INTER:                  -7.148
REMARK INTRA:                   0.000
REMARK UNBOUND:                 0.000
REMARK  Name = C:\Users\HP\Downloads\Anthraquinone_pdb\AD13.pdb
REMARK  3 active torsions:
REMARK  status: ('A' for Active; 'I' for Inactive)
REMARK    1  A    between atoms: O_1  and  C_12
REMARK    2  A    between atoms: O_4  and  C_14
REMARK    3  A    between atoms: O_5  and  C_15
REMARK                            x       y       z     vdW  Elec       q    Type
REMARK                         _______ _______ _______ _____ _____    ______ ____
ROOT
ATOM      3  C   UNL     1      18.814  71.157   4.946  0.00  0.00    +0.174 A 
ATOM      4  C   UNL     1      19.821  72.122   4.988  0.00  0.00    +0.201 A 
ATOM      5  C   UNL     1      20.264  72.721   3.810  0.00  0.00    +0.163 A 
ATOM      6  C   UNL     1      19.703  72.358   2.586  0.00  0.00    +0.061 A 
ATOM      7  C   UNL     1      18.693  71.391   2.539  0.00  0.00    +0.040 A 
ATOM      8  C   UNL     1      18.104  71.012   1.238  0.00  0.00    +0.195 C 
ATOM      9  C   UNL     1      17.040  69.989   1.203  0.00  0.00    +0.033 A 
ATOM     10  C   UNL     1      16.475  69.621  -0.024  0.00  0.00    +0.012 A 
ATOM     11  C   UNL     1      15.468  68.655  -0.066  0.00  0.00    +0.001 A 
ATOM     12  C   UNL     1      15.024  68.056   1.111  0.00  0.00    +0.001 A 
ATOM     13  C   UNL     1      15.584  68.420   2.335  0.00  0.00    +0.012 A 
ATOM     14  C   UNL     1      16.595  69.388   2.382  0.00  0.00    +0.033 A 
ATOM     15  C   UNL     1      17.183  69.767   3.683  0.00  0.00    +0.198 C 
ATOM     16  O   UNL     1      16.774  69.226   4.703  0.00  0.00    -0.286 OA
ATOM     17  O   UNL     1      18.494  71.539   0.203  0.00  0.00    -0.287 OA
ATOM     22  C   UNL     1      18.248  70.789   3.719  0.00  0.00    +0.078 A 
ENDROOT
BRANCH   3   1
ATOM      1  O   UNL     1      18.417  70.600   6.127  0.00  0.00    -0.503 OA
ATOM      2  H   UNL     1      19.077  69.969   6.452  0.00  0.00    +0.292 HD
ENDBRANCH   3   1
BRANCH   5  18
ATOM     18  O   UNL     1      21.247  73.664   3.841  0.00  0.00    -0.503 OA
ATOM     19  H   UNL     1      22.055  73.278   3.459  0.00  0.00    +0.292 HD
ENDBRANCH   5  18
BRANCH   4  20
ATOM     20  O   UNL     1      20.375  72.482   6.181  0.00  0.00    -0.501 OA
ATOM     21  H   UNL     1      19.751  73.065   6.646  0.00  0.00    +0.292 HD
ENDBRANCH   4  20
TORSDOF 3
ENDMDL
MODEL 6
REMARK VINA RESULT:    -6.494      3.956      7.256
REMARK INTER + INTRA:          -7.063
REMARK INTER:                  -7.063
REMARK INTRA:                   0.000
REMARK UNBOUND:                 0.000
REMARK  Name = C:\Users\HP\Downloads\Anthraquinone_pdb\AD13.pdb
REMARK  3 active torsions:
REMARK  status: ('A' for Active; 'I' for Inactive)
REMARK    1  A    between atoms: O_1  and  C_12
REMARK    2  A    between atoms: O_4  and  C_14
REMARK    3  A    between atoms: O_5  and  C_15
REMARK                            x       y       z     vdW  Elec       q    Type
REMARK                         _______ _______ _______ _____ _____    ______ ____
ROOT
ATOM      3  C   UNL     1      24.435  57.261  22.997  0.00  0.00    +0.174 A 
ATOM      4  C   UNL     1      23.426  56.376  23.380  0.00  0.00    +0.201 A 
ATOM      5  C   UNL     1      22.998  56.336  24.705  0.00  0.00    +0.163 A 
ATOM      6  C   UNL     1      23.576  57.179  25.654  0.00  0.00    +0.061 A 
ATOM      7  C   UNL     1      24.587  58.070  25.274  0.00  0.00    +0.040 A 
ATOM      8  C   UNL     1      25.194  58.959  26.285  0.00  0.00    +0.195 C 
ATOM      9  C   UNL     1      26.261  59.893  25.872  0.00  0.00    +0.033 A 
ATOM     10  C   UNL     1      26.845  60.741  26.820  0.00  0.00    +0.012 A 
ATOM     11  C   UNL     1      27.854  61.626  26.438  0.00  0.00    +0.001 A 
ATOM     12  C   UNL     1      28.282  61.667  25.112  0.00  0.00    +0.001 A 
ATOM     13  C   UNL     1      27.703  60.824  24.164  0.00  0.00    +0.012 A 
ATOM     14  C   UNL     1      26.691  59.934  24.544  0.00  0.00    +0.033 A 
ATOM     15  C   UNL     1      26.084  59.045  23.532  0.00  0.00    +0.198 C 
ATOM     16  O   UNL     1      26.479  59.102  22.374  0.00  0.00    -0.286 OA
ATOM     17  O   UNL     1      24.818  58.924  27.450  0.00  0.00    -0.287 OA
ATOM     22  C   UNL     1      25.018  58.110  23.946  0.00  0.00    +0.078 A 
ENDROOT
BRANCH   3   1
ATOM      1  O   UNL     1      24.818  57.261  21.687  0.00  0.00    -0.503 OA
ATOM      2  H   UNL     1      25.072  56.371  21.400  0.00  0.00    +0.292 HD
ENDBRANCH   3   1
BRANCH   5  18
ATOM     18  O   UNL     1      22.015  55.474  25.089  0.00  0.00    -0.503 OA
ATOM     19  H   UNL     1      21.553  55.857  25.854  0.00  0.00    +0.292 HD
ENDBRANCH   5  18
BRANCH   4  20
ATOM     20  O   UNL     1      22.857  55.547  22.458  0.00  0.00    -0.501 OA
ATOM     21  H   UNL     1      23.565  55.158  21.916  0.00  0.00    +0.292 HD
ENDBRANCH   4  20
TORSDOF 3
ENDMDL
MODEL 7
REMARK VINA RESULT:    -6.423     15.337     16.624
REMARK INTER + INTRA:          -6.986
REMARK INTER:                  -6.986
REMARK INTRA:                   0.000
REMARK UNBOUND:                 0.000
REMARK  Name = C:\Users\HP\Downloads\Anthraquinone_pdb\AD13.pdb
REMARK  3 active torsions:
REMARK  status: ('A' for Active; 'I' for Inactive)
REMARK    1  A    between atoms: O_1  and  C_12
REMARK    2  A    between atoms: O_4  and  C_14
REMARK    3  A    between atoms: O_5  and  C_15
REMARK                            x       y       z     vdW  Elec       q    Type
REMARK                         _______ _______ _______ _____ _____    ______ ____
ROOT
ATOM      3  C   UNL     1      15.224  40.283  20.436  0.00  0.00    +0.174 A 
ATOM      4  C   UNL     1      15.245  41.469  19.701  0.00  0.00    +0.201 A 
ATOM      5  C   UNL     1      15.932  42.580  20.187  0.00  0.00    +0.163 A 
ATOM      6  C   UNL     1      16.601  42.511  21.409  0.00  0.00    +0.061 A 
ATOM      7  C   UNL     1      16.583  41.323  22.149  0.00  0.00    +0.040 A 
ATOM      8  C   UNL     1      17.294  41.258  23.442  0.00  0.00    +0.195 C 
ATOM      9  C   UNL     1      17.267  39.999  24.214  0.00  0.00    +0.033 A 
ATOM     10  C   UNL     1      17.936  39.925  25.442  0.00  0.00    +0.012 A 
ATOM     11  C   UNL     1      17.915  38.739  26.177  0.00  0.00    +0.001 A 
ATOM     12  C   UNL     1      17.229  37.628  25.692  0.00  0.00    +0.001 A 
ATOM     13  C   UNL     1      16.560  37.697  24.469  0.00  0.00    +0.012 A 
ATOM     14  C   UNL     1      16.579  38.886  23.728  0.00  0.00    +0.033 A 
ATOM     15  C   UNL     1      15.868  38.950  22.435  0.00  0.00    +0.198 C 
ATOM     16  O   UNL     1      15.273  37.958  22.031  0.00  0.00    -0.286 OA
ATOM     17  O   UNL     1      17.898  42.234  23.869  0.00  0.00    -0.287 OA
ATOM     22  C   UNL     1      15.894  40.209  21.663  0.00  0.00    +0.078 A 
ENDROOT
BRANCH   3   1
ATOM      1  O   UNL     1      14.537  39.225  19.917  0.00  0.00    -0.503 OA
ATOM      2  H   UNL     1      14.399  39.335  18.964  0.00  0.00    +0.292 HD
ENDBRANCH   3   1
BRANCH   5  18
ATOM     18  O   UNL     1      15.957  43.743  19.477  0.00  0.00    -0.503 OA
ATOM     19  H   UNL     1      15.244  44.318  19.804  0.00  0.00    +0.292 HD
ENDBRANCH   5  18
BRANCH   4  20
ATOM     20  O   UNL     1      14.592  41.545  18.506  0.00  0.00    -0.501 OA
ATOM     21  H   UNL     1      13.925  40.838  18.475  0.00  0.00    +0.292 HD
ENDBRANCH   4  20
TORSDOF 3
ENDMDL
MODEL 8
REMARK VINA RESULT:    -6.228     18.690     20.319
REMARK INTER + INTRA:          -6.775
REMARK INTER:                  -6.775
REMARK INTRA:                   0.000
REMARK UNBOUND:                 0.000
REMARK  Name = C:\Users\HP\Downloads\Anthraquinone_pdb\AD13.pdb
REMARK  3 active torsions:
REMARK  status: ('A' for Active; 'I' for Inactive)
REMARK    1  A    between atoms: O_1  and  C_12
REMARK    2  A    between atoms: O_4  and  C_14
REMARK    3  A    between atoms: O_5  and  C_15
REMARK                            x       y       z     vdW  Elec       q    Type
REMARK                         _______ _______ _______ _____ _____    ______ ____
ROOT
ATOM      3  C   UNL     1      22.154  47.306   7.994  0.00  0.00    +0.174 A 
ATOM      4  C   UNL     1      21.758  48.593   8.361  0.00  0.00    +0.201 A 
ATOM      5  C   UNL     1      22.702  49.510   8.818  0.00  0.00    +0.163 A 
ATOM      6  C   UNL     1      24.046  49.145   8.911  0.00  0.00    +0.061 A 
ATOM      7  C   UNL     1      24.447  47.856   8.543  0.00  0.00    +0.040 A 
ATOM      8  C   UNL     1      25.871  47.478   8.645  0.00  0.00    +0.195 C 
ATOM      9  C   UNL     1      26.281  46.113   8.256  0.00  0.00    +0.033 A 
ATOM     10  C   UNL     1      27.628  45.742   8.348  0.00  0.00    +0.012 A 
ATOM     11  C   UNL     1      28.024  44.455   7.982  0.00  0.00    +0.001 A 
ATOM     12  C   UNL     1      27.080  43.538   7.524  0.00  0.00    +0.001 A 
ATOM     13  C   UNL     1      25.737  43.903   7.430  0.00  0.00    +0.012 A 
ATOM     14  C   UNL     1      25.336  45.194   7.797  0.00  0.00    +0.033 A 
ATOM     15  C   UNL     1      23.911  45.571   7.695  0.00  0.00    +0.198 C 
ATOM     16  O   UNL     1      23.103  44.745   7.289  0.00  0.00    -0.286 OA
ATOM     17  O   UNL     1      26.701  48.284   9.047  0.00  0.00    -0.287 OA
ATOM     22  C   UNL     1      23.501  46.935   8.086  0.00  0.00    +0.078 A 
ENDROOT
BRANCH   3   1
ATOM      1  O   UNL     1      21.191  46.445   7.554  0.00  0.00    -0.503 OA
ATOM      2  H   UNL     1      20.990  45.776   8.225  0.00  0.00    +0.292 HD
ENDBRANCH   3   1
BRANCH   5  18
ATOM     18  O   UNL     1      22.325  50.768   9.179  0.00  0.00    -0.503 OA
ATOM     19  H   UNL     1      23.025  51.150   9.737  0.00  0.00    +0.292 HD
ENDBRANCH   5  18
BRANCH   4  20
ATOM     20  O   UNL     1      20.447  48.956   8.273  0.00  0.00    -0.501 OA
ATOM     21  H   UNL     1      20.391  49.925   8.347  0.00  0.00    +0.292 HD
ENDBRANCH   4  20
TORSDOF 3
ENDMDL
MODEL 9
REMARK VINA RESULT:    -6.114     25.939     27.878
REMARK INTER + INTRA:          -6.650
REMARK INTER:                  -6.650
REMARK INTRA:                   0.000
REMARK UNBOUND:                 0.000
REMARK  Name = C:\Users\HP\Downloads\Anthraquinone_pdb\AD13.pdb
REMARK  3 active torsions:
REMARK  status: ('A' for Active; 'I' for Inactive)
REMARK    1  A    between atoms: O_1  and  C_12
REMARK    2  A    between atoms: O_4  and  C_14
REMARK    3  A    between atoms: O_5  and  C_15
REMARK                            x       y       z     vdW  Elec       q    Type
REMARK                         _______ _______ _______ _____ _____    ______ ____
ROOT
ATOM      3  C   UNL     1      19.693  72.336   2.578  0.00  0.00    +0.174 A 
ATOM      4  C   UNL     1      20.253  72.689   3.807  0.00  0.00    +0.201 A 
ATOM      5  C   UNL     1      19.808  72.079   4.978  0.00  0.00    +0.163 A 
ATOM      6  C   UNL     1      18.801  71.114   4.926  0.00  0.00    +0.061 A 
ATOM      7  C   UNL     1      18.237  70.757   3.696  0.00  0.00    +0.040 A 
ATOM      8  C   UNL     1      17.172  69.735   3.651  0.00  0.00    +0.195 C 
ATOM      9  C   UNL     1      16.584  69.369   2.346  0.00  0.00    +0.033 A 
ATOM     10  C   UNL     1      15.573  68.402   2.290  0.00  0.00    +0.012 A 
ATOM     11  C   UNL     1      15.013  68.050   1.061  0.00  0.00    +0.001 A 
ATOM     12  C   UNL     1      15.457  68.659  -0.111  0.00  0.00    +0.001 A 
ATOM     13  C   UNL     1      16.465  69.623  -0.059  0.00  0.00    +0.012 A 
ATOM     14  C   UNL     1      17.029  69.980   1.172  0.00  0.00    +0.033 A 
ATOM     15  C   UNL     1      18.096  71.001   1.217  0.00  0.00    +0.198 C 
ATOM     16  O   UNL     1      18.468  71.520   0.172  0.00  0.00    -0.286 OA
ATOM     17  O   UNL     1      16.780  69.199   4.680  0.00  0.00    -0.287 OA
ATOM     22  C   UNL     1      18.682  71.369   2.521  0.00  0.00    +0.078 A 
ENDROOT
BRANCH   3   1
ATOM      1  O   UNL     1      20.163  72.964   1.462  0.00  0.00    -0.503 OA
ATOM      2  H   UNL     1      19.790  73.854   1.380  0.00  0.00    +0.292 HD
ENDBRANCH   3   1
BRANCH   5  18
ATOM     18  O   UNL     1      20.348  72.417   6.182  0.00  0.00    -0.503 OA
ATOM     19  H   UNL     1      20.183  73.363   6.338  0.00  0.00    +0.292 HD
ENDBRANCH   5  18
BRANCH   4  20
ATOM     20  O   UNL     1      21.237  73.631   3.865  0.00  0.00    -0.501 OA
ATOM     21  H   UNL     1      21.628  73.612   4.756  0.00  0.00    +0.292 HD
ENDBRANCH   4  20
TORSDOF 3
ENDMDL
