MODEL 1
REMARK VINA RESULT:    -7.011      0.000      0.000
REMARK INTER + INTRA:          -7.838
REMARK INTER:                  -8.035
REMARK INTRA:                   0.197
REMARK UNBOUND:                 0.197
REMARK  Name = C:\Users\HP\Downloads\Anthraquinone_pdb\AD14.pdb
REMARK  4 active torsions:
REMARK  status: ('A' for Active; 'I' for Inactive)
REMARK    1  A    between atoms: O_1  and  C_12
REMARK    2  A    between atoms: O_1  and  C_21
REMARK    3  A    between atoms: O_4  and  C_15
REMARK    4  A    between atoms: C_14  and  C_20
REMARK                            x       y       z     vdW  Elec       q    Type
REMARK                         _______ _______ _______ _____ _____    ______ ____
ROOT
ATOM      3  C   UNL     1      19.463  55.186  26.296  0.00  0.00    +0.145 A 
ATOM      4  C   UNL     1      18.756  54.129  25.723  0.00  0.00    +0.098 A 
ATOM      7  C   UNL     1      17.462  53.841  26.153  0.00  0.00    +0.131 A 
ATOM      8  C   UNL     1      16.871  54.607  27.158  0.00  0.00    +0.058 A 
ATOM      9  C   UNL     1      17.579  55.668  27.736  0.00  0.00    +0.040 A 
ATOM     10  C   UNL     1      16.946  56.473  28.800  0.00  0.00    +0.195 C 
ATOM     11  C   UNL     1      17.702  57.590  29.401  0.00  0.00    +0.033 A 
ATOM     12  C   UNL     1      17.113  58.362  30.410  0.00  0.00    +0.012 A 
ATOM     13  C   UNL     1      17.822  59.419  30.983  0.00  0.00    +0.001 A 
ATOM     14  C   UNL     1      19.115  59.708  30.551  0.00  0.00    +0.001 A 
ATOM     15  C   UNL     1      19.706  58.942  29.546  0.00  0.00    +0.012 A 
ATOM     16  C   UNL     1      18.999  57.880  28.970  0.00  0.00    +0.033 A 
ATOM     17  C   UNL     1      19.632  57.074  27.906  0.00  0.00    +0.198 C 
ATOM     18  O   UNL     1      20.770  57.351  27.547  0.00  0.00    -0.286 OA
ATOM     19  O   UNL     1      15.808  56.220  29.178  0.00  0.00    -0.287 OA
ATOM     22  C   UNL     1      18.875  55.957  27.305  0.00  0.00    +0.076 A 
ENDROOT
BRANCH   3   1
ATOM      1  O   UNL     1      20.728  55.434  25.844  0.00  0.00    -0.494 OA
ATOM      2  C   UNL     1      20.845  56.162  24.624  0.00  0.00    +0.277 C 
ENDBRANCH   3   1
BRANCH   4   5
ATOM      5  C   UNL     1      19.364  53.321  24.671  0.00  0.00    +0.266 C 
ATOM      6  O   UNL     1      18.704  52.735  23.812  0.00  0.00    -0.295 OA
ENDBRANCH   4   5
BRANCH   7  20
ATOM     20  O   UNL     1      16.754  52.812  25.605  0.00  0.00    -0.506 OA
ATOM     21  H   UNL     1      17.372  52.122  25.309  0.00  0.00    +0.292 HD
ENDBRANCH   7  20
TORSDOF 3
ENDMDL
MODEL 2
REMARK VINA RESULT:    -6.737     21.293     22.576
REMARK INTER + INTRA:          -7.525
REMARK INTER:                  -7.613
REMARK INTRA:                   0.088
REMARK UNBOUND:                 0.197
REMARK  Name = C:\Users\HP\Downloads\Anthraquinone_pdb\AD14.pdb
REMARK  4 active torsions:
REMARK  status: ('A' for Active; 'I' for Inactive)
REMARK    1  A    between atoms: O_1  and  C_12
REMARK    2  A    between atoms: O_1  and  C_21
REMARK    3  A    between atoms: O_4  and  C_15
REMARK    4  A    between atoms: C_14  and  C_20
REMARK                            x       y       z     vdW  Elec       q    Type
REMARK                         _______ _______ _______ _____ _____    ______ ____
ROOT
ATOM      3  C   UNL     1      23.586  46.493   8.075  0.00  0.00    +0.145 A 
ATOM      4  C   UNL     1      24.710  46.561   8.897  0.00  0.00    +0.098 A 
ATOM      7  C   UNL     1      25.279  47.796   9.203  0.00  0.00    +0.131 A 
ATOM      8  C   UNL     1      24.725  48.968   8.687  0.00  0.00    +0.058 A 
ATOM      9  C   UNL     1      23.597  48.904   7.860  0.00  0.00    +0.040 A 
ATOM     10  C   UNL     1      23.018  50.150   7.318  0.00  0.00    +0.195 C 
ATOM     11  C   UNL     1      21.827  50.068   6.448  0.00  0.00    +0.033 A 
ATOM     12  C   UNL     1      21.268  51.243   5.928  0.00  0.00    +0.012 A 
ATOM     13  C   UNL     1      20.143  51.174   5.106  0.00  0.00    +0.001 A 
ATOM     14  C   UNL     1      19.574  49.938   4.802  0.00  0.00    +0.001 A 
ATOM     15  C   UNL     1      20.128  48.767   5.318  0.00  0.00    +0.012 A 
ATOM     16  C   UNL     1      21.257  48.831   6.142  0.00  0.00    +0.033 A 
ATOM     17  C   UNL     1      21.836  47.585   6.684  0.00  0.00    +0.198 C 
ATOM     18  O   UNL     1      21.315  46.513   6.401  0.00  0.00    -0.286 OA
ATOM     19  O   UNL     1      23.517  51.236   7.587  0.00  0.00    -0.287 OA
ATOM     22  C   UNL     1      23.028  47.667   7.554  0.00  0.00    +0.076 A 
ENDROOT
BRANCH   3   1
ATOM      1  O   UNL     1      23.061  45.262   7.802  0.00  0.00    -0.494 OA
ATOM      2  C   UNL     1      23.750  44.467   6.841  0.00  0.00    +0.277 C 
ENDBRANCH   3   1
BRANCH   4   5
ATOM      5  C   UNL     1      25.298  45.342   9.442  0.00  0.00    +0.266 C 
ATOM      6  O   UNL     1      25.391  45.126  10.651  0.00  0.00    -0.295 OA
ENDBRANCH   4   5
BRANCH   7  20
ATOM     20  O   UNL     1      26.379  47.883  10.005  0.00  0.00    -0.506 OA
ATOM     21  H   UNL     1      26.282  48.648  10.597  0.00  0.00    +0.292 HD
ENDBRANCH   7  20
TORSDOF 3
ENDMDL
MODEL 3
REMARK VINA RESULT:    -6.646     15.018     16.763
REMARK INTER + INTRA:          -7.420
REMARK INTER:                  -7.477
REMARK INTRA:                   0.057
REMARK UNBOUND:                 0.197
REMARK  Name = C:\Users\HP\Downloads\Anthraquinone_pdb\AD14.pdb
REMARK  4 active torsions:
REMARK  status: ('A' for Active; 'I' for Inactive)
REMARK    1  A    between atoms: O_1  and  C_12
REMARK    2  A    between atoms: O_1  and  C_21
REMARK    3  A    between atoms: O_4  and  C_15
REMARK    4  A    between atoms: C_14  and  C_20
REMARK                            x       y       z     vdW  Elec       q    Type
REMARK                         _______ _______ _______ _____ _____    ______ ____
ROOT
ATOM      3  C   UNL     1      15.386  40.035  21.902  0.00  0.00    +0.145 A 
ATOM      4  C   UNL     1      15.648  40.796  20.762  0.00  0.00    +0.098 A 
ATOM      7  C   UNL     1      16.599  41.814  20.805  0.00  0.00    +0.131 A 
ATOM      8  C   UNL     1      17.292  42.075  21.987  0.00  0.00    +0.058 A 
ATOM      9  C   UNL     1      17.031  41.314  23.133  0.00  0.00    +0.040 A 
ATOM     10  C   UNL     1      17.769  41.598  24.380  0.00  0.00    +0.195 C 
ATOM     11  C   UNL     1      17.486  40.787  25.582  0.00  0.00    +0.033 A 
ATOM     12  C   UNL     1      18.179  41.046  26.772  0.00  0.00    +0.012 A 
ATOM     13  C   UNL     1      17.917  40.285  27.911  0.00  0.00    +0.001 A 
ATOM     14  C   UNL     1      16.967  39.266  27.867  0.00  0.00    +0.001 A 
ATOM     15  C   UNL     1      16.274  39.005  26.685  0.00  0.00    +0.012 A 
ATOM     16  C   UNL     1      16.533  39.767  25.540  0.00  0.00    +0.033 A 
ATOM     17  C   UNL     1      15.795  39.483  24.292  0.00  0.00    +0.198 C 
ATOM     18  O   UNL     1      14.966  38.582  24.283  0.00  0.00    -0.286 OA
ATOM     19  O   UNL     1      18.605  42.492  24.418  0.00  0.00    -0.287 OA
ATOM     22  C   UNL     1      16.079  40.294  23.090  0.00  0.00    +0.076 A 
ENDROOT
BRANCH   3   1
ATOM      1  O   UNL     1      14.447  39.047  21.815  0.00  0.00    -0.494 OA
ATOM      2  C   UNL     1      13.081  39.451  21.856  0.00  0.00    +0.277 C 
ENDBRANCH   3   1
BRANCH   4   5
ATOM      5  C   UNL     1      14.929  40.532  19.520  0.00  0.00    +0.266 C 
ATOM      6  O   UNL     1      14.299  41.399  18.914  0.00  0.00    -0.295 OA
ENDBRANCH   4   5
BRANCH   7  20
ATOM     20  O   UNL     1      16.868  42.568  19.701  0.00  0.00    -0.506 OA
ATOM     21  H   UNL     1      16.536  43.471  19.844  0.00  0.00    +0.292 HD
ENDBRANCH   7  20
TORSDOF 3
ENDMDL
MODEL 4
REMARK VINA RESULT:    -6.603      1.882      5.859
REMARK INTER + INTRA:          -7.371
REMARK INTER:                  -7.432
REMARK INTRA:                   0.060
REMARK UNBOUND:                 0.197
REMARK  Name = C:\Users\HP\Downloads\Anthraquinone_pdb\AD14.pdb
REMARK  4 active torsions:
REMARK  status: ('A' for Active; 'I' for Inactive)
REMARK    1  A    between atoms: O_1  and  C_12
REMARK    2  A    between atoms: O_1  and  C_21
REMARK    3  A    between atoms: O_4  and  C_15
REMARK    4  A    between atoms: C_14  and  C_20
REMARK                            x       y       z     vdW  Elec       q    Type
REMARK                         _______ _______ _______ _____ _____    ______ ____
ROOT
ATOM      3  C   UNL     1      19.398  58.757  29.587  0.00  0.00    +0.145 A 
ATOM      4  C   UNL     1      18.675  59.398  30.593  0.00  0.00    +0.098 A 
ATOM      7  C   UNL     1      17.376  58.988  30.890  0.00  0.00    +0.131 A 
ATOM      8  C   UNL     1      16.796  57.936  30.181  0.00  0.00    +0.058 A 
ATOM      9  C   UNL     1      17.518  57.291  29.169  0.00  0.00    +0.040 A 
ATOM     10  C   UNL     1      16.894  56.179  28.424  0.00  0.00    +0.195 C 
ATOM     11  C   UNL     1      17.667  55.506  27.360  0.00  0.00    +0.033 A 
ATOM     12  C   UNL     1      17.088  54.449  26.646  0.00  0.00    +0.012 A 
ATOM     13  C   UNL     1      17.812  53.809  25.640  0.00  0.00    +0.001 A 
ATOM     14  C   UNL     1      19.111  54.218  25.345  0.00  0.00    +0.001 A 
ATOM     15  C   UNL     1      19.691  55.270  26.054  0.00  0.00    +0.012 A 
ATOM     16  C   UNL     1      18.969  55.916  27.063  0.00  0.00    +0.033 A 
ATOM     17  C   UNL     1      19.592  57.029  27.809  0.00  0.00    +0.198 C 
ATOM     18  O   UNL     1      20.735  57.367  27.528  0.00  0.00    -0.286 OA
ATOM     19  O   UNL     1      15.753  55.818  28.685  0.00  0.00    -0.287 OA
ATOM     22  C   UNL     1      18.818  57.702  28.873  0.00  0.00    +0.076 A 
ENDROOT
BRANCH   3   1
ATOM      1  O   UNL     1      20.667  59.191  29.330  0.00  0.00    -0.494 OA
ATOM      2  C   UNL     1      20.797  60.384  28.562  0.00  0.00    +0.277 C 
ENDBRANCH   3   1
BRANCH   4   5
ATOM      5  C   UNL     1      19.272  60.499  31.341  0.00  0.00    +0.266 C 
ATOM      6  O   UNL     1      18.772  61.624  31.389  0.00  0.00    -0.295 OA
ENDBRANCH   4   5
BRANCH   7  20
ATOM     20  O   UNL     1      16.654  59.602  31.870  0.00  0.00    -0.506 OA
ATOM     21  H   UNL     1      15.757  59.781  31.540  0.00  0.00    +0.292 HD
ENDBRANCH   7  20
TORSDOF 3
ENDMDL
MODEL 5
REMARK VINA RESULT:    -6.523      1.973      4.145
REMARK INTER + INTRA:          -7.279
REMARK INTER:                  -7.390
REMARK INTRA:                   0.111
REMARK UNBOUND:                 0.197
REMARK  Name = C:\Users\HP\Downloads\Anthraquinone_pdb\AD14.pdb
REMARK  4 active torsions:
REMARK  status: ('A' for Active; 'I' for Inactive)
REMARK    1  A    between atoms: O_1  and  C_12
REMARK    2  A    between atoms: O_1  and  C_21
REMARK    3  A    between atoms: O_4  and  C_15
REMARK    4  A    between atoms: C_14  and  C_20
REMARK                            x       y       z     vdW  Elec       q    Type
REMARK                         _______ _______ _______ _____ _____    ______ ____
ROOT
ATOM      3  C   UNL     1      18.198  55.049  27.484  0.00  0.00    +0.145 A 
ATOM      4  C   UNL     1      17.684  54.192  26.511  0.00  0.00    +0.098 A 
ATOM      7  C   UNL     1      18.414  53.931  25.353  0.00  0.00    +0.131 A 
ATOM      8  C   UNL     1      19.661  54.526  25.164  0.00  0.00    +0.058 A 
ATOM      9  C   UNL     1      20.181  55.388  26.138  0.00  0.00    +0.040 A 
ATOM     10  C   UNL     1      21.501  56.014  25.928  0.00  0.00    +0.195 C 
ATOM     11  C   UNL     1      22.039  56.920  26.963  0.00  0.00    +0.033 A 
ATOM     12  C   UNL     1      23.291  57.520  26.777  0.00  0.00    +0.012 A 
ATOM     13  C   UNL     1      23.805  58.377  27.750  0.00  0.00    +0.001 A 
ATOM     14  C   UNL     1      23.075  58.636  28.909  0.00  0.00    +0.001 A 
ATOM     15  C   UNL     1      21.827  58.041  29.098  0.00  0.00    +0.012 A 
ATOM     16  C   UNL     1      21.308  57.181  28.124  0.00  0.00    +0.033 A 
ATOM     17  C   UNL     1      19.986  56.555  28.333  0.00  0.00    +0.198 C 
ATOM     18  O   UNL     1      19.367  56.801  29.361  0.00  0.00    -0.286 OA
ATOM     19  O   UNL     1      22.144  55.784  24.910  0.00  0.00    -0.287 OA
ATOM     22  C   UNL     1      19.449  55.649  27.297  0.00  0.00    +0.076 A 
ENDROOT
BRANCH   3   1
ATOM      1  O   UNL     1      17.449  55.276  28.604  0.00  0.00    -0.494 OA
ATOM      2  C   UNL     1      16.370  56.198  28.480  0.00  0.00    +0.277 C 
ENDBRANCH   3   1
BRANCH   4   5
ATOM      5  C   UNL     1      16.380  53.564  26.699  0.00  0.00    +0.266 C 
ATOM      6  O   UNL     1      16.161  52.383  26.426  0.00  0.00    -0.295 OA
ENDBRANCH   4   5
BRANCH   7  20
ATOM     20  O   UNL     1      17.927  53.096  24.391  0.00  0.00    -0.506 OA
ATOM     21  H   UNL     1      17.296  53.584  23.836  0.00  0.00    +0.292 HD
ENDBRANCH   7  20
TORSDOF 3
ENDMDL
MODEL 6
REMARK VINA RESULT:    -6.327      3.959      6.555
REMARK INTER + INTRA:          -7.055
REMARK INTER:                  -7.117
REMARK INTRA:                   0.062
REMARK UNBOUND:                 0.197
REMARK  Name = C:\Users\HP\Downloads\Anthraquinone_pdb\AD14.pdb
REMARK  4 active torsions:
REMARK  status: ('A' for Active; 'I' for Inactive)
REMARK    1  A    between atoms: O_1  and  C_12
REMARK    2  A    between atoms: O_1  and  C_21
REMARK    3  A    between atoms: O_4  and  C_15
REMARK    4  A    between atoms: C_14  and  C_20
REMARK                            x       y       z     vdW  Elec       q    Type
REMARK                         _______ _______ _______ _____ _____    ______ ____
ROOT
ATOM      3  C   UNL     1      22.810  60.128  24.869  0.00  0.00    +0.145 A 
ATOM      4  C   UNL     1      22.726  60.396  23.503  0.00  0.00    +0.098 A 
ATOM      7  C   UNL     1      22.218  59.433  22.632  0.00  0.00    +0.131 A 
ATOM      8  C   UNL     1      21.792  58.200  23.125  0.00  0.00    +0.058 A 
ATOM      9  C   UNL     1      21.875  57.927  24.496  0.00  0.00    +0.040 A 
ATOM     10  C   UNL     1      21.422  56.618  25.008  0.00  0.00    +0.195 C 
ATOM     11  C   UNL     1      21.514  56.344  26.456  0.00  0.00    +0.033 A 
ATOM     12  C   UNL     1      21.087  55.106  26.955  0.00  0.00    +0.012 A 
ATOM     13  C   UNL     1      21.171  54.840  28.322  0.00  0.00    +0.001 A 
ATOM     14  C   UNL     1      21.678  55.803  29.192  0.00  0.00    +0.001 A 
ATOM     15  C   UNL     1      22.104  57.037  28.700  0.00  0.00    +0.012 A 
ATOM     16  C   UNL     1      22.023  57.308  27.329  0.00  0.00    +0.033 A 
ATOM     17  C   UNL     1      22.476  58.617  26.816  0.00  0.00    +0.198 C 
ATOM     18  O   UNL     1      22.917  59.445  27.604  0.00  0.00    -0.286 OA
ATOM     19  O   UNL     1      20.974  55.772  24.243  0.00  0.00    -0.287 OA
ATOM     22  C   UNL     1      22.384  58.891  25.367  0.00  0.00    +0.076 A 
ENDROOT
BRANCH   3   1
ATOM      1  O   UNL     1      23.314  61.100  25.686  0.00  0.00    -0.494 OA
ATOM      2  C   UNL     1      22.459  62.202  25.979  0.00  0.00    +0.277 C 
ENDBRANCH   3   1
BRANCH   4   5
ATOM      5  C   UNL     1      23.169  61.683  22.976  0.00  0.00    +0.266 C 
ATOM      6  O   UNL     1      22.434  62.430  22.330  0.00  0.00    -0.295 OA
ENDBRANCH   4   5
BRANCH   7  20
ATOM     20  O   UNL     1      22.129  59.677  21.293  0.00  0.00    -0.506 OA
ATOM     21  H   UNL     1      22.994  59.975  20.965  0.00  0.00    +0.292 HD
ENDBRANCH   7  20
TORSDOF 3
ENDMDL
MODEL 7
REMARK VINA RESULT:    -6.270      3.428      5.505
REMARK INTER + INTRA:          -6.989
REMARK INTER:                  -7.049
REMARK INTRA:                   0.060
REMARK UNBOUND:                 0.197
REMARK  Name = C:\Users\HP\Downloads\Anthraquinone_pdb\AD14.pdb
REMARK  4 active torsions:
REMARK  status: ('A' for Active; 'I' for Inactive)
REMARK    1  A    between atoms: O_1  and  C_12
REMARK    2  A    between atoms: O_1  and  C_21
REMARK    3  A    between atoms: O_4  and  C_15
REMARK    4  A    between atoms: C_14  and  C_20
REMARK                            x       y       z     vdW  Elec       q    Type
REMARK                         _______ _______ _______ _____ _____    ______ ____
ROOT
ATOM      3  C   UNL     1      21.656  57.404  25.432  0.00  0.00    +0.145 A 
ATOM      4  C   UNL     1      22.928  57.867  25.770  0.00  0.00    +0.098 A 
ATOM      7  C   UNL     1      23.550  57.414  26.932  0.00  0.00    +0.131 A 
ATOM      8  C   UNL     1      22.903  56.497  27.760  0.00  0.00    +0.058 A 
ATOM      9  C   UNL     1      21.627  56.030  27.424  0.00  0.00    +0.040 A 
ATOM     10  C   UNL     1      20.949  55.059  28.307  0.00  0.00    +0.195 C 
ATOM     11  C   UNL     1      19.603  54.574  27.941  0.00  0.00    +0.033 A 
ATOM     12  C   UNL     1      18.950  53.652  28.769  0.00  0.00    +0.012 A 
ATOM     13  C   UNL     1      17.678  53.189  28.429  0.00  0.00    +0.001 A 
ATOM     14  C   UNL     1      17.058  53.641  27.267  0.00  0.00    +0.001 A 
ATOM     15  C   UNL     1      17.704  54.559  26.439  0.00  0.00    +0.012 A 
ATOM     16  C   UNL     1      18.980  55.026  26.776  0.00  0.00    +0.033 A 
ATOM     17  C   UNL     1      19.657  55.998  25.893  0.00  0.00    +0.198 C 
ATOM     18  O   UNL     1      19.088  56.378  24.878  0.00  0.00    -0.286 OA
ATOM     19  O   UNL     1      21.496  54.660  29.328  0.00  0.00    -0.287 OA
ATOM     22  C   UNL     1      21.004  56.484  26.260  0.00  0.00    +0.076 A 
ENDROOT
BRANCH   3   1
ATOM      1  O   UNL     1      21.084  57.874  24.284  0.00  0.00    -0.494 OA
ATOM      2  C   UNL     1      21.559  57.326  23.057  0.00  0.00    +0.277 C 
ENDBRANCH   3   1
BRANCH   4   5
ATOM      5  C   UNL     1      23.614  58.828  24.912  0.00  0.00    +0.266 C 
ATOM      6  O   UNL     1      24.745  58.636  24.464  0.00  0.00    -0.295 OA
ENDBRANCH   4   5
BRANCH   7  20
ATOM     20  O   UNL     1      24.793  57.856  27.280  0.00  0.00    -0.506 OA
ATOM     21  H   UNL     1      25.141  57.297  27.995  0.00  0.00    +0.292 HD
ENDBRANCH   7  20
TORSDOF 3
ENDMDL
MODEL 8
REMARK VINA RESULT:    -6.269     27.176     29.501
REMARK INTER + INTRA:          -6.988
REMARK INTER:                  -7.110
REMARK INTRA:                   0.122
REMARK UNBOUND:                 0.197
REMARK  Name = C:\Users\HP\Downloads\Anthraquinone_pdb\AD14.pdb
REMARK  4 active torsions:
REMARK  status: ('A' for Active; 'I' for Inactive)
REMARK    1  A    between atoms: O_1  and  C_12
REMARK    2  A    between atoms: O_1  and  C_21
REMARK    3  A    between atoms: O_4  and  C_15
REMARK    4  A    between atoms: C_14  and  C_20
REMARK                            x       y       z     vdW  Elec       q    Type
REMARK                         _______ _______ _______ _____ _____    ______ ____
ROOT
ATOM      3  C   UNL     1      19.816  72.368   2.593  0.00  0.00    +0.145 A 
ATOM      4  C   UNL     1      20.420  72.694   3.807  0.00  0.00    +0.098 A 
ATOM      7  C   UNL     1      19.997  72.081   4.985  0.00  0.00    +0.131 A 
ATOM      8  C   UNL     1      18.968  71.141   4.953  0.00  0.00    +0.058 A 
ATOM      9  C   UNL     1      18.357  70.812   3.736  0.00  0.00    +0.040 A 
ATOM     10  C   UNL     1      17.268  69.816   3.713  0.00  0.00    +0.195 C 
ATOM     11  C   UNL     1      16.633  69.477   2.423  0.00  0.00    +0.033 A 
ATOM     12  C   UNL     1      15.599  68.533   2.386  0.00  0.00    +0.012 A 
ATOM     13  C   UNL     1      14.995  68.207   1.171  0.00  0.00    +0.001 A 
ATOM     14  C   UNL     1      15.420  68.819  -0.007  0.00  0.00    +0.001 A 
ATOM     15  C   UNL     1      16.450  69.760   0.025  0.00  0.00    +0.012 A 
ATOM     16  C   UNL     1      17.058  70.090   1.242  0.00  0.00    +0.033 A 
ATOM     17  C   UNL     1      18.148  71.087   1.266  0.00  0.00    +0.198 C 
ATOM     18  O   UNL     1      18.501  71.608   0.216  0.00  0.00    -0.286 OA
ATOM     19  O   UNL     1      16.896  69.276   4.748  0.00  0.00    -0.287 OA
ATOM     22  C   UNL     1      18.782  71.426   2.557  0.00  0.00    +0.076 A 
ENDROOT
BRANCH   3   1
ATOM      1  O   UNL     1      20.263  72.992   1.463  0.00  0.00    -0.494 OA
ATOM      2  C   UNL     1      19.810  74.325   1.241  0.00  0.00    +0.277 C 
ENDBRANCH   3   1
BRANCH   4   5
ATOM      5  C   UNL     1      21.499  73.677   3.852  0.00  0.00    +0.266 C 
ATOM      6  O   UNL     1      21.660  74.450   4.797  0.00  0.00    -0.295 OA
ENDBRANCH   4   5
BRANCH   7  20
ATOM     20  O   UNL     1      20.576  72.387   6.181  0.00  0.00    -0.506 OA
ATOM     21  H   UNL     1      20.706  71.569   6.691  0.00  0.00    +0.292 HD
ENDBRANCH   7  20
TORSDOF 3
ENDMDL
MODEL 9
REMARK VINA RESULT:    -6.156      1.890      3.857
REMARK INTER + INTRA:          -6.859
REMARK INTER:                  -6.952
REMARK INTRA:                   0.093
REMARK UNBOUND:                 0.197
REMARK  Name = C:\Users\HP\Downloads\Anthraquinone_pdb\AD14.pdb
REMARK  4 active torsions:
REMARK  status: ('A' for Active; 'I' for Inactive)
REMARK    1  A    between atoms: O_1  and  C_12
REMARK    2  A    between atoms: O_1  and  C_21
REMARK    3  A    between atoms: O_4  and  C_15
REMARK    4  A    between atoms: C_14  and  C_20
REMARK                            x       y       z     vdW  Elec       q    Type
REMARK                         _______ _______ _______ _____ _____    ______ ____
ROOT
ATOM      3  C   UNL     1      19.198  55.874  27.940  0.00  0.00    +0.145 A 
ATOM      4  C   UNL     1      20.395  55.474  27.347  0.00  0.00    +0.098 A 
ATOM      7  C   UNL     1      21.564  56.200  27.571  0.00  0.00    +0.131 A 
ATOM      8  C   UNL     1      21.538  57.330  28.389  0.00  0.00    +0.058 A 
ATOM      9  C   UNL     1      20.338  57.736  28.985  0.00  0.00    +0.040 A 
ATOM     10  C   UNL     1      20.321  58.933  29.848  0.00  0.00    +0.195 C 
ATOM     11  C   UNL     1      19.049  59.350  30.473  0.00  0.00    +0.033 A 
ATOM     12  C   UNL     1      19.019  60.483  31.295  0.00  0.00    +0.012 A 
ATOM     13  C   UNL     1      17.821  60.883  31.888  0.00  0.00    +0.001 A 
ATOM     14  C   UNL     1      16.653  60.155  31.664  0.00  0.00    +0.001 A 
ATOM     15  C   UNL     1      16.679  59.025  30.846  0.00  0.00    +0.012 A 
ATOM     16  C   UNL     1      17.878  58.621  30.249  0.00  0.00    +0.033 A 
ATOM     17  C   UNL     1      17.895  57.424  29.384  0.00  0.00    +0.198 C 
ATOM     18  O   UNL     1      16.855  56.803  29.206  0.00  0.00    -0.286 OA
ATOM     19  O   UNL     1      21.347  59.572  30.047  0.00  0.00    -0.287 OA
ATOM     22  C   UNL     1      19.168  57.007  28.760  0.00  0.00    +0.076 A 
ENDROOT
BRANCH   3   1
ATOM      1  O   UNL     1      18.078  55.132  27.693  0.00  0.00    -0.494 OA
ATOM      2  C   UNL     1      17.945  53.909  28.412  0.00  0.00    +0.277 C 
ENDBRANCH   3   1
BRANCH   4   5
ATOM      5  C   UNL     1      20.434  54.293  26.489  0.00  0.00    +0.266 C 
ATOM      6  O   UNL     1      21.353  53.475  26.518  0.00  0.00    -0.295 OA
ENDBRANCH   4   5
BRANCH   7  20
ATOM     20  O   UNL     1      22.743  55.824  26.999  0.00  0.00    -0.506 OA
ATOM     21  H   UNL     1      23.068  56.547  26.435  0.00  0.00    +0.292 HD
ENDBRANCH   7  20
TORSDOF 3
ENDMDL
