MODEL 1
REMARK VINA RESULT:    -7.412      0.000      0.000
REMARK INTER + INTRA:          -8.552
REMARK INTER:                  -8.279
REMARK INTRA:                  -0.273
REMARK UNBOUND:                -0.273
REMARK  Name = C:\Users\HP\Downloads\Anthraquinone_pdb\AD15.pdb
REMARK  3 active torsions:
REMARK  status: ('A' for Active; 'I' for Inactive)
REMARK    1  A    between atoms: O_1  and  C_12
REMARK    2  A    between atoms: O_4  and  C_15
REMARK    3  A    between atoms: C_14  and  C_20
REMARK                            x       y       z     vdW  Elec       q    Type
REMARK                         _______ _______ _______ _____ _____    ______ ____
ROOT
ATOM      3  C   UNL     1      20.684  57.096  23.999  0.00  0.00    +0.142 A 
ATOM      4  C   UNL     1      21.908  57.487  23.456  0.00  0.00    +0.098 A 
ATOM      7  C   UNL     1      23.099  57.018  24.007  0.00  0.00    +0.131 A 
ATOM      8  C   UNL     1      23.070  56.158  25.105  0.00  0.00    +0.058 A 
ATOM      9  C   UNL     1      21.844  55.763  25.653  0.00  0.00    +0.040 A 
ATOM     10  C   UNL     1      21.823  54.852  26.816  0.00  0.00    +0.195 C 
ATOM     11  C   UNL     1      20.522  54.443  27.384  0.00  0.00    +0.033 A 
ATOM     12  C   UNL     1      20.489  53.579  28.485  0.00  0.00    +0.012 A 
ATOM     13  C   UNL     1      19.265  53.188  29.027  0.00  0.00    +0.001 A 
ATOM     14  C   UNL     1      18.075  53.656  28.476  0.00  0.00    +0.001 A 
ATOM     15  C   UNL     1      18.103  54.517  27.378  0.00  0.00    +0.012 A 
ATOM     16  C   UNL     1      19.329  54.912  26.831  0.00  0.00    +0.033 A 
ATOM     17  C   UNL     1      19.350  55.825  25.669  0.00  0.00    +0.198 C 
ATOM     18  O   UNL     1      18.289  56.221  25.205  0.00  0.00    -0.286 OA
ATOM     19  O   UNL     1      22.870  54.440  27.302  0.00  0.00    -0.287 OA
ATOM     22  C   UNL     1      20.651  56.233  25.100  0.00  0.00    +0.075 A 
ENDROOT
BRANCH   3   1
ATOM      1  O   UNL     1      19.542  57.579  23.426  0.00  0.00    -0.505 OA
ATOM      2  H   UNL     1      19.286  58.422  23.832  0.00  0.00    +0.292 HD
ENDBRANCH   3   1
BRANCH   4   5
ATOM      5  C   UNL     1      21.949  58.387  22.308  0.00  0.00    +0.266 C 
ATOM      6  O   UNL     1      22.705  59.358  22.247  0.00  0.00    -0.295 OA
ENDBRANCH   4   5
BRANCH   7  20
ATOM     20  O   UNL     1      24.305  57.388  23.491  0.00  0.00    -0.506 OA
ATOM     21  H   UNL     1      24.728  58.025  24.093  0.00  0.00    +0.292 HD
ENDBRANCH   7  20
TORSDOF 3
ENDMDL
MODEL 2
REMARK VINA RESULT:    -7.354      0.828      2.972
REMARK INTER + INTRA:          -8.488
REMARK INTER:                  -8.203
REMARK INTRA:                  -0.284
REMARK UNBOUND:                -0.273
REMARK  Name = C:\Users\HP\Downloads\Anthraquinone_pdb\AD15.pdb
REMARK  3 active torsions:
REMARK  status: ('A' for Active; 'I' for Inactive)
REMARK    1  A    between atoms: O_1  and  C_12
REMARK    2  A    between atoms: O_4  and  C_15
REMARK    3  A    between atoms: C_14  and  C_20
REMARK                            x       y       z     vdW  Elec       q    Type
REMARK                         _______ _______ _______ _____ _____    ______ ____
ROOT
ATOM      3  C   UNL     1      22.905  56.357  24.781  0.00  0.00    +0.142 A 
ATOM      4  C   UNL     1      22.847  57.149  23.634  0.00  0.00    +0.098 A 
ATOM      7  C   UNL     1      21.614  57.504  23.091  0.00  0.00    +0.131 A 
ATOM      8  C   UNL     1      20.433  57.068  23.693  0.00  0.00    +0.058 A 
ATOM      9  C   UNL     1      20.487  56.274  24.844  0.00  0.00    +0.040 A 
ATOM     10  C   UNL     1      19.231  55.817  25.475  0.00  0.00    +0.195 C 
ATOM     11  C   UNL     1      19.302  54.980  26.691  0.00  0.00    +0.033 A 
ATOM     12  C   UNL     1      18.119  54.541  27.298  0.00  0.00    +0.012 A 
ATOM     13  C   UNL     1      18.177  53.751  28.445  0.00  0.00    +0.001 A 
ATOM     14  C   UNL     1      19.410  53.396  28.989  0.00  0.00    +0.001 A 
ATOM     15  C   UNL     1      20.591  53.831  28.386  0.00  0.00    +0.012 A 
ATOM     16  C   UNL     1      20.538  54.624  27.235  0.00  0.00    +0.033 A 
ATOM     17  C   UNL     1      21.793  55.080  26.603  0.00  0.00    +0.198 C 
ATOM     18  O   UNL     1      22.863  54.754  27.101  0.00  0.00    -0.286 OA
ATOM     19  O   UNL     1      18.146  56.128  24.998  0.00  0.00    -0.287 OA
ATOM     22  C   UNL     1      21.722  55.919  25.388  0.00  0.00    +0.075 A 
ENDROOT
BRANCH   3   1
ATOM      1  O   UNL     1      24.135  56.034  25.279  0.00  0.00    -0.505 OA
ATOM      2  H   UNL     1      24.756  56.770  25.163  0.00  0.00    +0.292 HD
ENDBRANCH   3   1
BRANCH   4   5
ATOM      5  C   UNL     1      24.076  57.609  22.996  0.00  0.00    +0.266 C 
ATOM      6  O   UNL     1      24.964  56.842  22.623  0.00  0.00    -0.295 OA
ENDBRANCH   4   5
BRANCH   7  20
ATOM     20  O   UNL     1      21.537  58.277  21.971  0.00  0.00    -0.506 OA
ATOM     21  H   UNL     1      21.033  57.800  21.288  0.00  0.00    +0.292 HD
ENDBRANCH   7  20
TORSDOF 3
ENDMDL
MODEL 3
REMARK VINA RESULT:    -7.125      2.306      5.640
REMARK INTER + INTRA:          -8.232
REMARK INTER:                  -7.966
REMARK INTRA:                  -0.266
REMARK UNBOUND:                -0.273
REMARK  Name = C:\Users\HP\Downloads\Anthraquinone_pdb\AD15.pdb
REMARK  3 active torsions:
REMARK  status: ('A' for Active; 'I' for Inactive)
REMARK    1  A    between atoms: O_1  and  C_12
REMARK    2  A    between atoms: O_4  and  C_15
REMARK    3  A    between atoms: C_14  and  C_20
REMARK                            x       y       z     vdW  Elec       q    Type
REMARK                         _______ _______ _______ _____ _____    ______ ____
ROOT
ATOM      3  C   UNL     1      18.434  54.893  26.070  0.00  0.00    +0.142 A 
ATOM      4  C   UNL     1      17.673  54.015  26.842  0.00  0.00    +0.098 A 
ATOM      7  C   UNL     1      18.085  53.679  28.130  0.00  0.00    +0.131 A 
ATOM      8  C   UNL     1      19.262  54.218  28.651  0.00  0.00    +0.058 A 
ATOM      9  C   UNL     1      20.029  55.099  27.880  0.00  0.00    +0.040 A 
ATOM     10  C   UNL     1      21.274  55.665  28.440  0.00  0.00    +0.195 C 
ATOM     11  C   UNL     1      22.073  56.596  27.616  0.00  0.00    +0.033 A 
ATOM     12  C   UNL     1      23.254  57.139  28.136  0.00  0.00    +0.012 A 
ATOM     13  C   UNL     1      24.014  58.018  27.365  0.00  0.00    +0.001 A 
ATOM     14  C   UNL     1      23.602  58.355  26.078  0.00  0.00    +0.001 A 
ATOM     15  C   UNL     1      22.426  57.816  25.556  0.00  0.00    +0.012 A 
ATOM     16  C   UNL     1      21.659  56.933  26.326  0.00  0.00    +0.033 A 
ATOM     17  C   UNL     1      20.416  56.366  25.766  0.00  0.00    +0.198 C 
ATOM     18  O   UNL     1      20.077  56.679  24.632  0.00  0.00    -0.286 OA
ATOM     19  O   UNL     1      21.637  55.369  29.572  0.00  0.00    -0.287 OA
ATOM     22  C   UNL     1      19.615  55.437  26.590  0.00  0.00    +0.075 A 
ENDROOT
BRANCH   3   1
ATOM      1  O   UNL     1      17.992  55.196  24.814  0.00  0.00    -0.505 OA
ATOM      2  H   UNL     1      17.047  54.998  24.727  0.00  0.00    +0.292 HD
ENDBRANCH   3   1
BRANCH   4   5
ATOM      5  C   UNL     1      16.442  53.445  26.306  0.00  0.00    +0.266 C 
ATOM      6  O   UNL     1      16.136  52.261  26.450  0.00  0.00    -0.295 OA
ENDBRANCH   4   5
BRANCH   7  20
ATOM     20  O   UNL     1      17.355  52.822  28.899  0.00  0.00    -0.506 OA
ATOM     21  H   UNL     1      17.665  51.913  28.747  0.00  0.00    +0.292 HD
ENDBRANCH   7  20
TORSDOF 3
ENDMDL
MODEL 4
REMARK VINA RESULT:    -7.072     15.068     16.740
REMARK INTER + INTRA:          -8.172
REMARK INTER:                  -7.895
REMARK INTRA:                  -0.276
REMARK UNBOUND:                -0.273
REMARK  Name = C:\Users\HP\Downloads\Anthraquinone_pdb\AD15.pdb
REMARK  3 active torsions:
REMARK  status: ('A' for Active; 'I' for Inactive)
REMARK    1  A    between atoms: O_1  and  C_12
REMARK    2  A    between atoms: O_4  and  C_15
REMARK    3  A    between atoms: C_14  and  C_20
REMARK                            x       y       z     vdW  Elec       q    Type
REMARK                         _______ _______ _______ _____ _____    ______ ____
ROOT
ATOM      3  C   UNL     1      15.940  41.377  20.504  0.00  0.00    +0.142 A 
ATOM      4  C   UNL     1      15.010  40.805  19.637  0.00  0.00    +0.098 A 
ATOM      7  C   UNL     1      14.141  39.817  20.095  0.00  0.00    +0.131 A 
ATOM      8  C   UNL     1      14.200  39.396  21.424  0.00  0.00    +0.058 A 
ATOM      9  C   UNL     1      15.132  39.967  22.298  0.00  0.00    +0.040 A 
ATOM     10  C   UNL     1      15.187  39.515  23.704  0.00  0.00    +0.195 C 
ATOM     11  C   UNL     1      16.175  40.128  24.616  0.00  0.00    +0.033 A 
ATOM     12  C   UNL     1      16.237  39.708  25.950  0.00  0.00    +0.012 A 
ATOM     13  C   UNL     1      17.166  40.281  26.818  0.00  0.00    +0.001 A 
ATOM     14  C   UNL     1      18.034  41.270  26.360  0.00  0.00    +0.001 A 
ATOM     15  C   UNL     1      17.976  41.690  25.031  0.00  0.00    +0.012 A 
ATOM     16  C   UNL     1      17.045  41.118  24.156  0.00  0.00    +0.033 A 
ATOM     17  C   UNL     1      16.991  41.569  22.750  0.00  0.00    +0.198 C 
ATOM     18  O   UNL     1      17.765  42.439  22.374  0.00  0.00    -0.286 OA
ATOM     19  O   UNL     1      14.424  38.646  24.108  0.00  0.00    -0.287 OA
ATOM     22  C   UNL     1      16.001  40.958  21.838  0.00  0.00    +0.075 A 
ENDROOT
BRANCH   3   1
ATOM      1  O   UNL     1      16.771  42.343  20.011  0.00  0.00    -0.505 OA
ATOM      2  H   UNL     1      17.323  41.988  19.298  0.00  0.00    +0.292 HD
ENDBRANCH   3   1
BRANCH   4   5
ATOM      5  C   UNL     1      14.940  41.237  18.244  0.00  0.00    +0.266 C 
ATOM      6  O   UNL     1      14.522  42.346  17.909  0.00  0.00    -0.295 OA
ENDBRANCH   4   5
BRANCH   7  20
ATOM     20  O   UNL     1      13.225  39.246  19.262  0.00  0.00    -0.506 OA
ATOM     21  H   UNL     1      12.824  39.937  18.706  0.00  0.00    +0.292 HD
ENDBRANCH   7  20
TORSDOF 3
ENDMDL
MODEL 5
REMARK VINA RESULT:    -6.926      2.671      5.639
REMARK INTER + INTRA:          -8.009
REMARK INTER:                  -7.732
REMARK INTRA:                  -0.277
REMARK UNBOUND:                -0.273
REMARK  Name = C:\Users\HP\Downloads\Anthraquinone_pdb\AD15.pdb
REMARK  3 active torsions:
REMARK  status: ('A' for Active; 'I' for Inactive)
REMARK    1  A    between atoms: O_1  and  C_12
REMARK    2  A    between atoms: O_4  and  C_15
REMARK    3  A    between atoms: C_14  and  C_20
REMARK                            x       y       z     vdW  Elec       q    Type
REMARK                         _______ _______ _______ _____ _____    ______ ____
ROOT
ATOM      3  C   UNL     1      18.278  54.159  27.561  0.00  0.00    +0.142 A 
ATOM      4  C   UNL     1      17.468  54.015  26.435  0.00  0.00    +0.098 A 
ATOM      7  C   UNL     1      17.784  54.686  25.256  0.00  0.00    +0.131 A 
ATOM      8  C   UNL     1      18.912  55.505  25.198  0.00  0.00    +0.058 A 
ATOM      9  C   UNL     1      19.729  55.652  26.325  0.00  0.00    +0.040 A 
ATOM     10  C   UNL     1      20.921  56.521  26.254  0.00  0.00    +0.195 C 
ATOM     11  C   UNL     1      21.775  56.667  27.452  0.00  0.00    +0.033 A 
ATOM     12  C   UNL     1      22.908  57.487  27.397  0.00  0.00    +0.012 A 
ATOM     13  C   UNL     1      23.719  57.630  28.522  0.00  0.00    +0.001 A 
ATOM     14  C   UNL     1      23.404  56.958  29.702  0.00  0.00    +0.001 A 
ATOM     15  C   UNL     1      22.275  56.140  29.760  0.00  0.00    +0.012 A 
ATOM     16  C   UNL     1      21.458  55.994  28.633  0.00  0.00    +0.033 A 
ATOM     17  C   UNL     1      20.264  55.126  28.704  0.00  0.00    +0.198 C 
ATOM     18  O   UNL     1      20.011  54.548  29.753  0.00  0.00    -0.286 OA
ATOM     19  O   UNL     1      21.199  57.112  25.217  0.00  0.00    -0.287 OA
ATOM     22  C   UNL     1      19.412  54.979  27.507  0.00  0.00    +0.075 A 
ENDROOT
BRANCH   3   1
ATOM      1  O   UNL     1      17.931  53.482  28.695  0.00  0.00    -0.505 OA
ATOM      2  H   UNL     1      17.798  54.097  29.434  0.00  0.00    +0.292 HD
ENDBRANCH   3   1
BRANCH   4   5
ATOM      5  C   UNL     1      16.285  53.162  26.485  0.00  0.00    +0.266 C 
ATOM      6  O   UNL     1      16.317  51.997  26.884  0.00  0.00    -0.295 OA
ENDBRANCH   4   5
BRANCH   7  20
ATOM     20  O   UNL     1      17.004  54.558  24.145  0.00  0.00    -0.506 OA
ATOM     21  H   UNL     1      16.174  55.048  24.280  0.00  0.00    +0.292 HD
ENDBRANCH   7  20
TORSDOF 3
ENDMDL
MODEL 6
REMARK VINA RESULT:    -6.733     15.233     16.678
REMARK INTER + INTRA:          -7.794
REMARK INTER:                  -7.522
REMARK INTRA:                  -0.272
REMARK UNBOUND:                -0.273
REMARK  Name = C:\Users\HP\Downloads\Anthraquinone_pdb\AD15.pdb
REMARK  3 active torsions:
REMARK  status: ('A' for Active; 'I' for Inactive)
REMARK    1  A    between atoms: O_1  and  C_12
REMARK    2  A    between atoms: O_4  and  C_15
REMARK    3  A    between atoms: C_14  and  C_20
REMARK                            x       y       z     vdW  Elec       q    Type
REMARK                         _______ _______ _______ _____ _____    ______ ____
ROOT
ATOM      3  C   UNL     1      15.343  40.390  20.382  0.00  0.00    +0.142 A 
ATOM      4  C   UNL     1      15.440  41.582  19.664  0.00  0.00    +0.098 A 
ATOM      7  C   UNL     1      16.129  42.668  20.201  0.00  0.00    +0.131 A 
ATOM      8  C   UNL     1      16.724  42.566  21.459  0.00  0.00    +0.058 A 
ATOM      9  C   UNL     1      16.629  41.372  22.183  0.00  0.00    +0.040 A 
ATOM     10  C   UNL     1      17.262  41.273  23.514  0.00  0.00    +0.195 C 
ATOM     11  C   UNL     1      17.155  40.006  24.267  0.00  0.00    +0.033 A 
ATOM     12  C   UNL     1      17.751  39.899  25.529  0.00  0.00    +0.012 A 
ATOM     13  C   UNL     1      17.655  38.707  26.246  0.00  0.00    +0.001 A 
ATOM     14  C   UNL     1      16.967  37.621  25.709  0.00  0.00    +0.001 A 
ATOM     15  C   UNL     1      16.371  37.724  24.452  0.00  0.00    +0.012 A 
ATOM     16  C   UNL     1      16.465  38.918  23.728  0.00  0.00    +0.033 A 
ATOM     17  C   UNL     1      15.831  39.018  22.398  0.00  0.00    +0.198 C 
ATOM     18  O   UNL     1      15.232  38.048  21.950  0.00  0.00    -0.286 OA
ATOM     19  O   UNL     1      17.868  42.227  23.987  0.00  0.00    -0.287 OA
ATOM     22  C   UNL     1      15.939  40.284  21.644  0.00  0.00    +0.075 A 
ENDROOT
BRANCH   3   1
ATOM      1  O   UNL     1      14.659  39.352  19.816  0.00  0.00    -0.505 OA
ATOM      2  H   UNL     1      13.715  39.564  19.743  0.00  0.00    +0.292 HD
ENDBRANCH   3   1
BRANCH   4   5
ATOM      5  C   UNL     1      14.821  41.700  18.348  0.00  0.00    +0.266 C 
ATOM      6  O   UNL     1      14.154  42.678  18.007  0.00  0.00    -0.295 OA
ENDBRANCH   4   5
BRANCH   7  20
ATOM     20  O   UNL     1      16.235  43.841  19.514  0.00  0.00    -0.506 OA
ATOM     21  H   UNL     1      16.470  43.650  18.589  0.00  0.00    +0.292 HD
ENDBRANCH   7  20
TORSDOF 3
ENDMDL
MODEL 7
REMARK VINA RESULT:    -6.726      3.977      5.322
REMARK INTER + INTRA:          -7.786
REMARK INTER:                  -7.516
REMARK INTRA:                  -0.270
REMARK UNBOUND:                -0.273
REMARK  Name = C:\Users\HP\Downloads\Anthraquinone_pdb\AD15.pdb
REMARK  3 active torsions:
REMARK  status: ('A' for Active; 'I' for Inactive)
REMARK    1  A    between atoms: O_1  and  C_12
REMARK    2  A    between atoms: O_4  and  C_15
REMARK    3  A    between atoms: C_14  and  C_20
REMARK                            x       y       z     vdW  Elec       q    Type
REMARK                         _______ _______ _______ _____ _____    ______ ____
ROOT
ATOM      3  C   UNL     1      17.694  55.514  27.196  0.00  0.00    +0.142 A 
ATOM      4  C   UNL     1      18.542  54.933  26.254  0.00  0.00    +0.098 A 
ATOM      7  C   UNL     1      19.876  55.326  26.177  0.00  0.00    +0.131 A 
ATOM      8  C   UNL     1      20.368  56.304  27.042  0.00  0.00    +0.058 A 
ATOM      9  C   UNL     1      19.521  56.890  27.990  0.00  0.00    +0.040 A 
ATOM     10  C   UNL     1      20.051  57.925  28.902  0.00  0.00    +0.195 C 
ATOM     11  C   UNL     1      19.145  58.534  29.898  0.00  0.00    +0.033 A 
ATOM     12  C   UNL     1      19.636  59.515  30.768  0.00  0.00    +0.012 A 
ATOM     13  C   UNL     1      18.788  60.095  31.712  0.00  0.00    +0.001 A 
ATOM     14  C   UNL     1      17.454  59.702  31.789  0.00  0.00    +0.001 A 
ATOM     15  C   UNL     1      16.962  58.724  30.923  0.00  0.00    +0.012 A 
ATOM     16  C   UNL     1      17.808  58.139  29.975  0.00  0.00    +0.033 A 
ATOM     17  C   UNL     1      17.279  57.106  29.062  0.00  0.00    +0.198 C 
ATOM     18  O   UNL     1      16.102  56.779  29.152  0.00  0.00    -0.286 OA
ATOM     19  O   UNL     1      21.224  58.271  28.834  0.00  0.00    -0.287 OA
ATOM     22  C   UNL     1      18.184  56.495  28.067  0.00  0.00    +0.075 A 
ENDROOT
BRANCH   3   1
ATOM      1  O   UNL     1      16.394  55.097  27.237  0.00  0.00    -0.505 OA
ATOM      2  H   UNL     1      15.999  55.291  28.101  0.00  0.00    +0.292 HD
ENDBRANCH   3   1
BRANCH   4   5
ATOM      5  C   UNL     1      18.038  53.910  25.343  0.00  0.00    +0.266 C 
ATOM      6  O   UNL     1      16.994  54.041  24.702  0.00  0.00    -0.295 OA
ENDBRANCH   4   5
BRANCH   7  20
ATOM     20  O   UNL     1      20.720  54.769  25.262  0.00  0.00    -0.506 OA
ATOM     21  H   UNL     1      21.121  55.476  24.726  0.00  0.00    +0.292 HD
ENDBRANCH   7  20
TORSDOF 3
ENDMDL
MODEL 8
REMARK VINA RESULT:    -6.642     18.839     20.387
REMARK INTER + INTRA:          -7.691
REMARK INTER:                  -7.405
REMARK INTRA:                  -0.287
REMARK UNBOUND:                -0.273
REMARK  Name = C:\Users\HP\Downloads\Anthraquinone_pdb\AD15.pdb
REMARK  3 active torsions:
REMARK  status: ('A' for Active; 'I' for Inactive)
REMARK    1  A    between atoms: O_1  and  C_12
REMARK    2  A    between atoms: O_4  and  C_15
REMARK    3  A    between atoms: C_14  and  C_20
REMARK                            x       y       z     vdW  Elec       q    Type
REMARK                         _______ _______ _______ _____ _____    ______ ____
ROOT
ATOM      3  C   UNL     1      23.535  46.489   8.046  0.00  0.00    +0.142 A 
ATOM      4  C   UNL     1      24.652  46.523   8.882  0.00  0.00    +0.098 A 
ATOM      7  C   UNL     1      25.251  47.739   9.199  0.00  0.00    +0.131 A 
ATOM      8  C   UNL     1      24.737  48.928   8.681  0.00  0.00    +0.058 A 
ATOM      9  C   UNL     1      23.618  48.900   7.842  0.00  0.00    +0.040 A 
ATOM     10  C   UNL     1      23.080  50.164   7.297  0.00  0.00    +0.195 C 
ATOM     11  C   UNL     1      21.897  50.119   6.414  0.00  0.00    +0.033 A 
ATOM     12  C   UNL     1      21.378  51.310   5.892  0.00  0.00    +0.012 A 
ATOM     13  C   UNL     1      20.261  51.277   5.058  0.00  0.00    +0.001 A 
ATOM     14  C   UNL     1      19.661  50.060   4.741  0.00  0.00    +0.001 A 
ATOM     15  C   UNL     1      20.175  48.871   5.259  0.00  0.00    +0.012 A 
ATOM     16  C   UNL     1      21.296  48.899   6.097  0.00  0.00    +0.033 A 
ATOM     17  C   UNL     1      21.834  47.635   6.640  0.00  0.00    +0.198 C 
ATOM     18  O   UNL     1      21.287  46.580   6.345  0.00  0.00    -0.286 OA
ATOM     19  O   UNL     1      23.608  51.234   7.576  0.00  0.00    -0.287 OA
ATOM     22  C   UNL     1      23.017  47.680   7.525  0.00  0.00    +0.075 A 
ENDROOT
BRANCH   3   1
ATOM      1  O   UNL     1      22.980  45.274   7.762  0.00  0.00    -0.505 OA
ATOM      2  H   UNL     1      23.651  44.575   7.793  0.00  0.00    +0.292 HD
ENDBRANCH   3   1
BRANCH   4   5
ATOM      5  C   UNL     1      25.198  45.285   9.429  0.00  0.00    +0.266 C 
ATOM      6  O   UNL     1      25.355  45.099  10.636  0.00  0.00    -0.295 OA
ENDBRANCH   4   5
BRANCH   7  20
ATOM     20  O   UNL     1      26.343  47.792  10.014  0.00  0.00    -0.506 OA
ATOM     21  H   UNL     1      27.128  47.507   9.515  0.00  0.00    +0.292 HD
ENDBRANCH   7  20
TORSDOF 3
ENDMDL
MODEL 9
REMARK VINA RESULT:    -6.500      4.204      6.281
REMARK INTER + INTRA:          -7.534
REMARK INTER:                  -7.248
REMARK INTRA:                  -0.285
REMARK UNBOUND:                -0.273
REMARK  Name = C:\Users\HP\Downloads\Anthraquinone_pdb\AD15.pdb
REMARK  3 active torsions:
REMARK  status: ('A' for Active; 'I' for Inactive)
REMARK    1  A    between atoms: O_1  and  C_12
REMARK    2  A    between atoms: O_4  and  C_15
REMARK    3  A    between atoms: C_14  and  C_20
REMARK                            x       y       z     vdW  Elec       q    Type
REMARK                         _______ _______ _______ _____ _____    ______ ____
ROOT
ATOM      3  C   UNL     1      19.406  58.414  29.302  0.00  0.00    +0.142 A 
ATOM      4  C   UNL     1      18.746  59.081  30.333  0.00  0.00    +0.098 A 
ATOM      7  C   UNL     1      17.444  58.723  30.678  0.00  0.00    +0.131 A 
ATOM      8  C   UNL     1      16.796  57.697  29.990  0.00  0.00    +0.058 A 
ATOM      9  C   UNL     1      17.454  57.024  28.954  0.00  0.00    +0.040 A 
ATOM     10  C   UNL     1      16.760  55.939  28.231  0.00  0.00    +0.195 C 
ATOM     11  C   UNL     1      17.467  55.237  27.140  0.00  0.00    +0.033 A 
ATOM     12  C   UNL     1      16.820  54.206  26.448  0.00  0.00    +0.012 A 
ATOM     13  C   UNL     1      17.480  53.538  25.417  0.00  0.00    +0.001 A 
ATOM     14  C   UNL     1      18.782  53.895  25.074  0.00  0.00    +0.001 A 
ATOM     15  C   UNL     1      19.430  54.922  25.761  0.00  0.00    +0.012 A 
ATOM     16  C   UNL     1      18.772  55.595  26.796  0.00  0.00    +0.033 A 
ATOM     17  C   UNL     1      19.465  56.682  27.518  0.00  0.00    +0.198 C 
ATOM     18  O   UNL     1      20.609  56.975  27.195  0.00  0.00    -0.286 OA
ATOM     19  O   UNL     1      15.614  55.624  28.533  0.00  0.00    -0.287 OA
ATOM     22  C   UNL     1      18.759  57.383  28.610  0.00  0.00    +0.075 A 
ENDROOT
BRANCH   3   1
ATOM      1  O   UNL     1      20.681  58.797  28.999  0.00  0.00    -0.505 OA
ATOM      2  H   UNL     1      20.685  59.671  28.580  0.00  0.00    +0.292 HD
ENDBRANCH   3   1
BRANCH   4   5
ATOM      5  C   UNL     1      19.414  60.157  31.059  0.00  0.00    +0.266 C 
ATOM      6  O   UNL     1      18.986  61.311  31.086  0.00  0.00    -0.295 OA
ENDBRANCH   4   5
BRANCH   7  20
ATOM     20  O   UNL     1      16.783  59.364  31.683  0.00  0.00    -0.506 OA
ATOM     21  H   UNL     1      15.853  59.491  31.424  0.00  0.00    +0.292 HD
ENDBRANCH   7  20
TORSDOF 3
ENDMDL
