MODEL 1
REMARK VINA RESULT:    -6.852      0.000      0.000
REMARK INTER + INTRA:          -7.854
REMARK INTER:                  -7.653
REMARK INTRA:                  -0.201
REMARK UNBOUND:                -0.201
REMARK  Name = C:\Users\HP\Downloads\Anthraquinone_pdb\AD16.pdb
REMARK  3 active torsions:
REMARK  status: ('A' for Active; 'I' for Inactive)
REMARK    1  A    between atoms: C_14  and  O_15
REMARK    2  A    between atoms: C_16  and  C_17
REMARK    3  A    between atoms: C_17  and  O_18
REMARK                            x       y       z     vdW  Elec       q    Type
REMARK                         _______ _______ _______ _____ _____    ______ ____
ROOT
ATOM      1  O   UNL     1      20.824  57.098  27.666  0.00  0.00    -0.287 OA
ATOM      2  C   UNL     1      19.642  56.827  27.847  0.00  0.00    +0.195 C 
ATOM      3  C   UNL     1      18.870  57.537  28.885  0.00  0.00    +0.037 A 
ATOM      4  C   UNL     1      19.502  58.524  29.651  0.00  0.00    +0.058 A 
ATOM      5  C   UNL     1      18.781  59.198  30.633  0.00  0.00    +0.123 A 
ATOM      6  C   UNL     1      17.432  58.906  30.875  0.00  0.00    +0.020 A 
ATOM      7  C   UNL     1      16.813  57.912  30.099  0.00  0.00    +0.022 A 
ATOM     13  C   UNL     1      17.529  57.230  29.105  0.00  0.00    +0.034 A 
ATOM     14  C   UNL     1      16.861  56.187  28.296  0.00  0.00    +0.195 C 
ATOM     15  O   UNL     1      15.683  55.909  28.494  0.00  0.00    -0.287 OA
ATOM     16  C   UNL     1      17.634  55.481  27.251  0.00  0.00    +0.033 A 
ATOM     17  C   UNL     1      17.015  54.494  26.473  0.00  0.00    +0.012 A 
ATOM     18  C   UNL     1      17.742  53.820  25.488  0.00  0.00    +0.001 A 
ATOM     19  C   UNL     1      19.085  54.129  25.277  0.00  0.00    +0.001 A 
ATOM     20  C   UNL     1      19.704  55.113  26.050  0.00  0.00    +0.012 A 
ATOM     21  C   UNL     1      18.977  55.790  27.037  0.00  0.00    +0.033 A 
ENDROOT
BRANCH   5  11
ATOM     11  O   UNL     1      19.381  60.175  31.377  0.00  0.00    -0.506 OA
ATOM     12  H   UNL     1      18.701  60.642  31.896  0.00  0.00    +0.292 HD
ENDBRANCH   5  11
BRANCH   6   8
ATOM      8  C   UNL     1      16.659  59.620  31.954  0.00  0.00    +0.194 C 
BRANCH   8   9
ATOM      9  O   UNL     1      17.000  59.112  33.237  0.00  0.00    -0.390 OA
ATOM     10  H   UNL     1      17.387  59.867  33.719  0.00  0.00    +0.210 HD
ENDBRANCH   8   9
ENDBRANCH   6   8
TORSDOF 3
ENDMDL
MODEL 2
REMARK VINA RESULT:    -6.692     16.107     17.988
REMARK INTER + INTRA:          -7.676
REMARK INTER:                  -7.421
REMARK INTRA:                  -0.255
REMARK UNBOUND:                -0.201
REMARK  Name = C:\Users\HP\Downloads\Anthraquinone_pdb\AD16.pdb
REMARK  3 active torsions:
REMARK  status: ('A' for Active; 'I' for Inactive)
REMARK    1  A    between atoms: C_14  and  O_15
REMARK    2  A    between atoms: C_16  and  C_17
REMARK    3  A    between atoms: C_17  and  O_18
REMARK                            x       y       z     vdW  Elec       q    Type
REMARK                         _______ _______ _______ _____ _____    ______ ____
ROOT
ATOM      1  O   UNL     1      18.659  42.452  24.213  0.00  0.00    -0.287 OA
ATOM      2  C   UNL     1      17.768  41.611  24.248  0.00  0.00    +0.195 C 
ATOM      3  C   UNL     1      16.960  41.337  23.044  0.00  0.00    +0.037 A 
ATOM      4  C   UNL     1      17.229  42.044  21.865  0.00  0.00    +0.058 A 
ATOM      5  C   UNL     1      16.470  41.792  20.725  0.00  0.00    +0.123 A 
ATOM      6  C   UNL     1      15.438  40.846  20.732  0.00  0.00    +0.020 A 
ATOM      7  C   UNL     1      15.179  40.146  21.923  0.00  0.00    +0.022 A 
ATOM     13  C   UNL     1      15.940  40.389  23.076  0.00  0.00    +0.034 A 
ATOM     14  C   UNL     1      15.655  39.643  24.321  0.00  0.00    +0.195 C 
ATOM     15  O   UNL     1      14.751  38.814  24.354  0.00  0.00    -0.287 OA
ATOM     16  C   UNL     1      16.470  39.913  25.525  0.00  0.00    +0.033 A 
ATOM     17  C   UNL     1      16.217  39.210  26.710  0.00  0.00    +0.012 A 
ATOM     18  C   UNL     1      16.981  39.466  27.852  0.00  0.00    +0.001 A 
ATOM     19  C   UNL     1      17.997  40.419  27.814  0.00  0.00    +0.001 A 
ATOM     20  C   UNL     1      18.253  41.120  26.634  0.00  0.00    +0.012 A 
ATOM     21  C   UNL     1      17.488  40.864  25.488  0.00  0.00    +0.033 A 
ENDROOT
BRANCH   5  11
ATOM     11  O   UNL     1      16.733  42.464  19.563  0.00  0.00    -0.506 OA
ATOM     12  H   UNL     1      17.436  43.118  19.728  0.00  0.00    +0.292 HD
ENDBRANCH   5  11
BRANCH   6   8
ATOM      8  C   UNL     1      14.601  40.591  19.504  0.00  0.00    +0.194 C 
BRANCH   8   9
ATOM      9  O   UNL     1      15.379  39.975  18.485  0.00  0.00    -0.390 OA
ATOM     10  H   UNL     1      16.130  39.561  18.950  0.00  0.00    +0.210 HD
ENDBRANCH   8   9
ENDBRANCH   6   8
TORSDOF 3
ENDMDL
MODEL 3
REMARK VINA RESULT:    -6.591      1.706      5.691
REMARK INTER + INTRA:          -7.563
REMARK INTER:                  -7.507
REMARK INTRA:                  -0.055
REMARK UNBOUND:                -0.201
REMARK  Name = C:\Users\HP\Downloads\Anthraquinone_pdb\AD16.pdb
REMARK  3 active torsions:
REMARK  status: ('A' for Active; 'I' for Inactive)
REMARK    1  A    between atoms: C_14  and  O_15
REMARK    2  A    between atoms: C_16  and  C_17
REMARK    3  A    between atoms: C_17  and  O_18
REMARK                            x       y       z     vdW  Elec       q    Type
REMARK                         _______ _______ _______ _____ _____    ______ ____
ROOT
ATOM      1  O   UNL     1      21.146  57.537  29.057  0.00  0.00    -0.287 OA
ATOM      2  C   UNL     1      19.926  57.425  29.008  0.00  0.00    +0.195 C 
ATOM      3  C   UNL     1      19.306  56.499  28.042  0.00  0.00    +0.037 A 
ATOM      4  C   UNL     1      20.126  55.748  27.191  0.00  0.00    +0.058 A 
ATOM      5  C   UNL     1      19.547  54.873  26.275  0.00  0.00    +0.123 A 
ATOM      6  C   UNL     1      18.157  54.728  26.185  0.00  0.00    +0.020 A 
ATOM      7  C   UNL     1      17.348  55.488  27.045  0.00  0.00    +0.022 A 
ATOM     13  C   UNL     1      17.920  56.371  27.973  0.00  0.00    +0.034 A 
ATOM     14  C   UNL     1      17.053  57.164  28.872  0.00  0.00    +0.195 C 
ATOM     15  O   UNL     1      15.833  57.059  28.807  0.00  0.00    -0.287 OA
ATOM     16  C   UNL     1      17.676  58.086  29.845  0.00  0.00    +0.033 A 
ATOM     17  C   UNL     1      16.869  58.840  30.707  0.00  0.00    +0.012 A 
ATOM     18  C   UNL     1      17.454  59.718  31.624  0.00  0.00    +0.001 A 
ATOM     19  C   UNL     1      18.841  59.844  31.684  0.00  0.00    +0.001 A 
ATOM     20  C   UNL     1      19.647  59.093  30.828  0.00  0.00    +0.012 A 
ATOM     21  C   UNL     1      19.063  58.213  29.908  0.00  0.00    +0.033 A 
ENDROOT
BRANCH   5  11
ATOM     11  O   UNL     1      20.338  54.122  25.450  0.00  0.00    -0.506 OA
ATOM     12  H   UNL     1      20.714  54.699  24.761  0.00  0.00    +0.292 HD
ENDBRANCH   5  11
BRANCH   6   8
ATOM      8  C   UNL     1      17.532  53.797  25.178  0.00  0.00    +0.194 C 
BRANCH   8   9
ATOM      9  O   UNL     1      16.638  52.894  25.815  0.00  0.00    -0.390 OA
ATOM     10  H   UNL     1      16.509  53.250  26.714  0.00  0.00    +0.210 HD
ENDBRANCH   8   9
ENDBRANCH   6   8
TORSDOF 3
ENDMDL
MODEL 4
REMARK VINA RESULT:    -6.388     16.884     18.758
REMARK INTER + INTRA:          -7.336
REMARK INTER:                  -7.273
REMARK INTRA:                  -0.063
REMARK UNBOUND:                -0.201
REMARK  Name = C:\Users\HP\Downloads\Anthraquinone_pdb\AD16.pdb
REMARK  3 active torsions:
REMARK  status: ('A' for Active; 'I' for Inactive)
REMARK    1  A    between atoms: C_14  and  O_15
REMARK    2  A    between atoms: C_16  and  C_17
REMARK    3  A    between atoms: C_17  and  O_18
REMARK                            x       y       z     vdW  Elec       q    Type
REMARK                         _______ _______ _______ _____ _____    ______ ____
ROOT
ATOM      1  O   UNL     1      14.335  38.318  21.269  0.00  0.00    -0.287 OA
ATOM      2  C   UNL     1      15.071  39.221  21.651  0.00  0.00    +0.195 C 
ATOM      3  C   UNL     1      15.350  40.372  20.771  0.00  0.00    +0.037 A 
ATOM      4  C   UNL     1      14.759  40.421  19.503  0.00  0.00    +0.058 A 
ATOM      5  C   UNL     1      15.019  41.503  18.666  0.00  0.00    +0.123 A 
ATOM      6  C   UNL     1      15.862  42.547  19.066  0.00  0.00    +0.020 A 
ATOM      7  C   UNL     1      16.448  42.483  20.341  0.00  0.00    +0.022 A 
ATOM     13  C   UNL     1      16.191  41.399  21.193  0.00  0.00    +0.034 A 
ATOM     14  C   UNL     1      16.816  41.348  22.533  0.00  0.00    +0.195 C 
ATOM     15  O   UNL     1      17.564  42.246  22.903  0.00  0.00    -0.287 OA
ATOM     16  C   UNL     1      16.530  40.197  23.418  0.00  0.00    +0.033 A 
ATOM     17  C   UNL     1      17.109  40.136  24.692  0.00  0.00    +0.012 A 
ATOM     18  C   UNL     1      16.847  39.048  25.529  0.00  0.00    +0.001 A 
ATOM     19  C   UNL     1      16.007  38.022  25.098  0.00  0.00    +0.001 A 
ATOM     20  C   UNL     1      15.428  38.081  23.829  0.00  0.00    +0.012 A 
ATOM     21  C   UNL     1      15.690  39.171  22.989  0.00  0.00    +0.033 A 
ENDROOT
BRANCH   5  11
ATOM     11  O   UNL     1      14.436  41.571  17.431  0.00  0.00    -0.506 OA
ATOM     12  H   UNL     1      13.742  42.255  17.445  0.00  0.00    +0.292 HD
ENDBRANCH   5  11
BRANCH   6   8
ATOM      8  C   UNL     1      16.161  43.707  18.150  0.00  0.00    +0.194 C 
BRANCH   8   9
ATOM      9  O   UNL     1      17.520  43.685  17.736  0.00  0.00    -0.390 OA
ATOM     10  H   UNL     1      17.942  42.990  18.275  0.00  0.00    +0.210 HD
ENDBRANCH   8   9
ENDBRANCH   6   8
TORSDOF 3
ENDMDL
MODEL 5
REMARK VINA RESULT:    -6.179      2.897      7.484
REMARK INTER + INTRA:          -7.102
REMARK INTER:                  -6.852
REMARK INTRA:                  -0.250
REMARK UNBOUND:                -0.201
REMARK  Name = C:\Users\HP\Downloads\Anthraquinone_pdb\AD16.pdb
REMARK  3 active torsions:
REMARK  status: ('A' for Active; 'I' for Inactive)
REMARK    1  A    between atoms: C_14  and  O_15
REMARK    2  A    between atoms: C_16  and  C_17
REMARK    3  A    between atoms: C_17  and  O_18
REMARK                            x       y       z     vdW  Elec       q    Type
REMARK                         _______ _______ _______ _____ _____    ______ ____
ROOT
ATOM      1  O   UNL     1      19.746  62.852  31.127  0.00  0.00    -0.287 OA
ATOM      2  C   UNL     1      18.724  62.287  31.500  0.00  0.00    +0.195 C 
ATOM      3  C   UNL     1      18.367  60.964  30.953  0.00  0.00    +0.037 A 
ATOM      4  C   UNL     1      19.212  60.364  30.012  0.00  0.00    +0.058 A 
ATOM      5  C   UNL     1      18.881  59.116  29.489  0.00  0.00    +0.123 A 
ATOM      6  C   UNL     1      17.717  58.446  29.885  0.00  0.00    +0.020 A 
ATOM      7  C   UNL     1      16.879  59.062  30.830  0.00  0.00    +0.022 A 
ATOM     13  C   UNL     1      17.204  60.317  31.365  0.00  0.00    +0.034 A 
ATOM     14  C   UNL     1      16.311  60.951  32.359  0.00  0.00    +0.195 C 
ATOM     15  O   UNL     1      15.282  60.387  32.716  0.00  0.00    -0.287 OA
ATOM     16  C   UNL     1      16.673  62.274  32.913  0.00  0.00    +0.033 A 
ATOM     17  C   UNL     1      15.841  62.885  33.859  0.00  0.00    +0.012 A 
ATOM     18  C   UNL     1      16.176  64.137  34.381  0.00  0.00    +0.001 A 
ATOM     19  C   UNL     1      17.339  64.780  33.961  0.00  0.00    +0.001 A 
ATOM     20  C   UNL     1      18.171  64.174  33.019  0.00  0.00    +0.012 A 
ATOM     21  C   UNL     1      17.837  62.918  32.495  0.00  0.00    +0.033 A 
ENDROOT
BRANCH   5  11
ATOM     11  O   UNL     1      19.706  58.511  28.581  0.00  0.00    -0.506 OA
ATOM     12  H   UNL     1      19.191  58.292  27.783  0.00  0.00    +0.292 HD
ENDBRANCH   5  11
BRANCH   6   8
ATOM      8  C   UNL     1      17.348  57.106  29.301  0.00  0.00    +0.194 C 
BRANCH   8   9
ATOM      9  O   UNL     1      17.357  57.156  27.881  0.00  0.00    -0.390 OA
ATOM     10  H   UNL     1      18.144  57.682  27.647  0.00  0.00    +0.210 HD
ENDBRANCH   8   9
ENDBRANCH   6   8
TORSDOF 3
ENDMDL
MODEL 6
REMARK VINA RESULT:    -6.171     28.483     29.769
REMARK INTER + INTRA:          -7.094
REMARK INTER:                  -6.846
REMARK INTRA:                  -0.248
REMARK UNBOUND:                -0.201
REMARK  Name = C:\Users\HP\Downloads\Anthraquinone_pdb\AD16.pdb
REMARK  3 active torsions:
REMARK  status: ('A' for Active; 'I' for Inactive)
REMARK    1  A    between atoms: C_14  and  O_15
REMARK    2  A    between atoms: C_16  and  C_17
REMARK    3  A    between atoms: C_17  and  O_18
REMARK                            x       y       z     vdW  Elec       q    Type
REMARK                         _______ _______ _______ _____ _____    ______ ____
ROOT
ATOM      1  O   UNL     1      18.103  71.416  -0.380  0.00  0.00    -0.287 OA
ATOM      2  C   UNL     1      17.684  70.810   0.600  0.00  0.00    +0.195 C 
ATOM      3  C   UNL     1      18.214  71.117   1.943  0.00  0.00    +0.037 A 
ATOM      4  C   UNL     1      19.192  72.109   2.081  0.00  0.00    +0.058 A 
ATOM      5  C   UNL     1      19.698  72.403   3.345  0.00  0.00    +0.123 A 
ATOM      6  C   UNL     1      19.249  71.724   4.485  0.00  0.00    +0.020 A 
ATOM      7  C   UNL     1      18.268  70.730   4.329  0.00  0.00    +0.022 A 
ATOM     13  C   UNL     1      17.750  70.428   3.061  0.00  0.00    +0.034 A 
ATOM     14  C   UNL     1      16.717  69.379   2.915  0.00  0.00    +0.195 C 
ATOM     15  O   UNL     1      16.313  68.766   3.898  0.00  0.00    -0.287 OA
ATOM     16  C   UNL     1      16.181  69.078   1.570  0.00  0.00    +0.033 A 
ATOM     17  C   UNL     1      15.199  68.092   1.415  0.00  0.00    +0.012 A 
ATOM     18  C   UNL     1      14.693  67.800   0.145  0.00  0.00    +0.001 A 
ATOM     19  C   UNL     1      15.166  68.490  -0.970  0.00  0.00    +0.001 A 
ATOM     20  C   UNL     1      16.144  69.474  -0.819  0.00  0.00    +0.012 A 
ATOM     21  C   UNL     1      16.651  69.768   0.453  0.00  0.00    +0.033 A 
ENDROOT
BRANCH   5  11
ATOM     11  O   UNL     1      20.641  73.381   3.496  0.00  0.00    -0.506 OA
ATOM     12  H   UNL     1      20.981  73.632   2.618  0.00  0.00    +0.292 HD
ENDBRANCH   5  11
BRANCH   6   8
ATOM      8  C   UNL     1      19.814  72.027   5.849  0.00  0.00    +0.194 C 
BRANCH   8   9
ATOM      9  O   UNL     1      21.167  71.599   5.940  0.00  0.00    -0.390 OA
ATOM     10  H   UNL     1      21.701  72.384   5.717  0.00  0.00    +0.210 HD
ENDBRANCH   8   9
ENDBRANCH   6   8
TORSDOF 3
ENDMDL
MODEL 7
REMARK VINA RESULT:    -6.080      5.610      6.524
REMARK INTER + INTRA:          -6.992
REMARK INTER:                  -6.919
REMARK INTRA:                  -0.073
REMARK UNBOUND:                -0.201
REMARK  Name = C:\Users\HP\Downloads\Anthraquinone_pdb\AD16.pdb
REMARK  3 active torsions:
REMARK  status: ('A' for Active; 'I' for Inactive)
REMARK    1  A    between atoms: C_14  and  O_15
REMARK    2  A    between atoms: C_16  and  C_17
REMARK    3  A    between atoms: C_17  and  O_18
REMARK                            x       y       z     vdW  Elec       q    Type
REMARK                         _______ _______ _______ _____ _____    ______ ____
ROOT
ATOM      1  O   UNL     1      20.365  60.089  32.270  0.00  0.00    -0.287 OA
ATOM      2  C   UNL     1      19.726  60.973  31.710  0.00  0.00    +0.195 C 
ATOM      3  C   UNL     1      18.578  61.602  32.390  0.00  0.00    +0.037 A 
ATOM      4  C   UNL     1      18.234  61.180  33.680  0.00  0.00    +0.058 A 
ATOM      5  C   UNL     1      17.150  61.767  34.328  0.00  0.00    +0.123 A 
ATOM      6  C   UNL     1      16.392  62.772  33.715  0.00  0.00    +0.020 A 
ATOM      7  C   UNL     1      16.749  63.183  32.419  0.00  0.00    +0.022 A 
ATOM     13  C   UNL     1      17.841  62.601  31.759  0.00  0.00    +0.034 A 
ATOM     14  C   UNL     1      18.203  63.046  30.395  0.00  0.00    +0.195 C 
ATOM     15  O   UNL     1      17.550  63.919  29.834  0.00  0.00    -0.287 OA
ATOM     16  C   UNL     1      19.360  62.421  29.717  0.00  0.00    +0.033 A 
ATOM     17  C   UNL     1      19.719  62.835  28.428  0.00  0.00    +0.012 A 
ATOM     18  C   UNL     1      20.808  62.243  27.782  0.00  0.00    +0.001 A 
ATOM     19  C   UNL     1      21.538  61.240  28.418  0.00  0.00    +0.001 A 
ATOM     20  C   UNL     1      21.182  60.827  29.702  0.00  0.00    +0.012 A 
ATOM     21  C   UNL     1      20.092  61.419  30.353  0.00  0.00    +0.033 A 
ENDROOT
BRANCH   5  11
ATOM     11  O   UNL     1      16.813  61.377  35.595  0.00  0.00    -0.506 OA
ATOM     12  H   UNL     1      15.845  61.420  35.693  0.00  0.00    +0.292 HD
ENDBRANCH   5  11
BRANCH   6   8
ATOM      8  C   UNL     1      15.204  63.391  34.408  0.00  0.00    +0.194 C 
BRANCH   8   9
ATOM      9  O   UNL     1      13.993  62.800  33.955  0.00  0.00    -0.390 OA
ATOM     10  H   UNL     1      13.712  63.341  33.194  0.00  0.00    +0.210 HD
ENDBRANCH   8   9
ENDBRANCH   6   8
TORSDOF 3
ENDMDL
MODEL 8
REMARK VINA RESULT:    -6.061      3.876      6.446
REMARK INTER + INTRA:          -6.971
REMARK INTER:                  -6.749
REMARK INTRA:                  -0.222
REMARK UNBOUND:                -0.201
REMARK  Name = C:\Users\HP\Downloads\Anthraquinone_pdb\AD16.pdb
REMARK  3 active torsions:
REMARK  status: ('A' for Active; 'I' for Inactive)
REMARK    1  A    between atoms: C_14  and  O_15
REMARK    2  A    between atoms: C_16  and  C_17
REMARK    3  A    between atoms: C_17  and  O_18
REMARK                            x       y       z     vdW  Elec       q    Type
REMARK                         _______ _______ _______ _____ _____    ______ ____
ROOT
ATOM      1  O   UNL     1      19.999  62.431  31.134  0.00  0.00    -0.287 OA
ATOM      2  C   UNL     1      18.920  61.990  31.512  0.00  0.00    +0.195 C 
ATOM      3  C   UNL     1      18.106  62.751  32.478  0.00  0.00    +0.037 A 
ATOM      4  C   UNL     1      18.579  63.981  32.951  0.00  0.00    +0.058 A 
ATOM      5  C   UNL     1      17.818  64.705  33.865  0.00  0.00    +0.123 A 
ATOM      6  C   UNL     1      16.585  64.226  34.326  0.00  0.00    +0.020 A 
ATOM      7  C   UNL     1      16.124  62.990  33.844  0.00  0.00    +0.022 A 
ATOM     13  C   UNL     1      16.882  62.254  32.920  0.00  0.00    +0.034 A 
ATOM     14  C   UNL     1      16.381  60.954  32.422  0.00  0.00    +0.195 C 
ATOM     15  O   UNL     1      15.308  60.511  32.816  0.00  0.00    -0.287 OA
ATOM     16  C   UNL     1      17.195  60.195  31.447  0.00  0.00    +0.033 A 
ATOM     17  C   UNL     1      16.732  58.965  30.961  0.00  0.00    +0.012 A 
ATOM     18  C   UNL     1      17.499  58.242  30.044  0.00  0.00    +0.001 A 
ATOM     19  C   UNL     1      18.726  58.744  29.610  0.00  0.00    +0.001 A 
ATOM     20  C   UNL     1      19.188  59.969  30.091  0.00  0.00    +0.012 A 
ATOM     21  C   UNL     1      18.420  60.696  31.010  0.00  0.00    +0.033 A 
ENDROOT
BRANCH   5  11
ATOM     11  O   UNL     1      18.261  65.915  34.322  0.00  0.00    -0.506 OA
ATOM     12  H   UNL     1      18.336  65.879  35.293  0.00  0.00    +0.292 HD
ENDBRANCH   5  11
BRANCH   6   8
ATOM      8  C   UNL     1      15.773  65.000  35.333  0.00  0.00    +0.194 C 
BRANCH   8   9
ATOM      9  O   UNL     1      15.672  66.366  34.956  0.00  0.00    -0.390 OA
ATOM     10  H   UNL     1      14.821  66.441  34.484  0.00  0.00    +0.210 HD
ENDBRANCH   8   9
ENDBRANCH   6   8
TORSDOF 3
ENDMDL
MODEL 9
REMARK VINA RESULT:    -6.061     27.934     29.093
REMARK INTER + INTRA:          -6.970
REMARK INTER:                  -6.904
REMARK INTRA:                  -0.066
REMARK UNBOUND:                -0.201
REMARK  Name = C:\Users\HP\Downloads\Anthraquinone_pdb\AD16.pdb
REMARK  3 active torsions:
REMARK  status: ('A' for Active; 'I' for Inactive)
REMARK    1  A    between atoms: C_14  and  O_15
REMARK    2  A    between atoms: C_16  and  C_17
REMARK    3  A    between atoms: C_17  and  O_18
REMARK                            x       y       z     vdW  Elec       q    Type
REMARK                         _______ _______ _______ _____ _____    ______ ____
ROOT
ATOM      1  O   UNL     1      19.522  72.636   1.238  0.00  0.00    -0.287 OA
ATOM      2  C   UNL     1      19.344  72.185   2.364  0.00  0.00    +0.195 C 
ATOM      3  C   UNL     1      20.169  72.661   3.491  0.00  0.00    +0.037 A 
ATOM      4  C   UNL     1      21.148  73.634   3.258  0.00  0.00    +0.058 A 
ATOM      5  C   UNL     1      21.932  74.087   4.316  0.00  0.00    +0.123 A 
ATOM      6  C   UNL     1      21.763  73.586   5.613  0.00  0.00    +0.020 A 
ATOM      7  C   UNL     1      20.778  72.609   5.831  0.00  0.00    +0.022 A 
ATOM     13  C   UNL     1      19.981  72.148   4.773  0.00  0.00    +0.034 A 
ATOM     14  C   UNL     1      18.947  71.119   5.019  0.00  0.00    +0.195 C 
ATOM     15  O   UNL     1      18.786  70.660   6.145  0.00  0.00    -0.287 OA
ATOM     16  C   UNL     1      18.115  70.648   3.890  0.00  0.00    +0.033 A 
ATOM     17  C   UNL     1      17.129  69.678   4.108  0.00  0.00    +0.012 A 
ATOM     18  C   UNL     1      16.344  69.226   3.043  0.00  0.00    +0.001 A 
ATOM     19  C   UNL     1      16.542  69.740   1.763  0.00  0.00    +0.001 A 
ATOM     20  C   UNL     1      17.523  70.708   1.543  0.00  0.00    +0.012 A 
ATOM     21  C   UNL     1      18.310  71.163   2.609  0.00  0.00    +0.033 A 
ENDROOT
BRANCH   5  11
ATOM     11  O   UNL     1      22.880  75.049   4.106  0.00  0.00    -0.506 OA
ATOM     12  H   UNL     1      22.752  75.432   3.219  0.00  0.00    +0.292 HD
ENDBRANCH   5  11
BRANCH   6   8
ATOM      8  C   UNL     1      22.628  74.061   6.754  0.00  0.00    +0.194 C 
BRANCH   8   9
ATOM      9  O   UNL     1      21.876  74.861   7.656  0.00  0.00    -0.390 OA
ATOM     10  H   UNL     1      22.065  75.784   7.401  0.00  0.00    +0.210 HD
ENDBRANCH   8   9
ENDBRANCH   6   8
TORSDOF 3
ENDMDL
