MODEL 1
REMARK VINA RESULT:    -6.675      0.000      0.000
REMARK INTER + INTRA:          -6.870
REMARK INTER:                  -6.870
REMARK INTRA:                   0.000
REMARK UNBOUND:                 0.000
REMARK  Name = C:\Users\HP\Downloads\Anthraquinone_pdb\AD17.pdb
REMARK  2 active torsions:
REMARK  status: ('A' for Active; 'I' for Inactive)
REMARK    1  A    between atoms: C_1  and  C_2
REMARK    2  A    between atoms: C_7  and  O_8
REMARK                            x       y       z     vdW  Elec       q    Type
REMARK                         _______ _______ _______ _____ _____    ______ ____
ROOT
ATOM      1  C   UNL     1      19.399  60.421  31.325  0.00  0.00    +0.047 C 
ATOM      2  C   UNL     1      18.736  59.312  30.559  0.00  0.00    -0.008 A 
ATOM      3  C   UNL     1      17.427  58.910  30.848  0.00  0.00    +0.120 A 
ATOM      6  C   UNL     1      16.814  57.879  30.136  0.00  0.00    +0.058 A 
ATOM      7  C   UNL     1      17.518  57.232  29.112  0.00  0.00    +0.037 A 
ATOM      8  C   UNL     1      16.874  56.139  28.354  0.00  0.00    +0.195 C 
ATOM      9  C   UNL     1      17.631  55.467  27.276  0.00  0.00    +0.033 A 
ATOM     10  C   UNL     1      18.935  55.860  26.981  0.00  0.00    +0.033 A 
ATOM     11  C   UNL     1      19.576  56.952  27.737  0.00  0.00    +0.195 C 
ATOM     12  O   UNL     1      20.723  57.296  27.474  0.00  0.00    -0.287 OA
ATOM     13  C   UNL     1      19.650  55.221  25.960  0.00  0.00    +0.012 A 
ATOM     14  C   UNL     1      19.057  54.186  25.236  0.00  0.00    +0.001 A 
ATOM     15  C   UNL     1      17.753  53.791  25.530  0.00  0.00    +0.001 A 
ATOM     16  C   UNL     1      17.038  54.427  26.548  0.00  0.00    +0.012 A 
ATOM     17  O   UNL     1      15.727  55.797  28.617  0.00  0.00    -0.287 OA
ATOM     18  C   UNL     1      18.822  57.622  28.812  0.00  0.00    +0.034 A 
ATOM     19  C   UNL     1      19.429  58.658  29.532  0.00  0.00    +0.019 A 
ENDROOT
BRANCH   3   4
ATOM      4  O   UNL     1      16.756  59.552  31.850  0.00  0.00    -0.506 OA
ATOM      5  H   UNL     1      15.823  59.650  31.600  0.00  0.00    +0.292 HD
ENDBRANCH   3   4
TORSDOF 1
ENDMDL
MODEL 2
REMARK VINA RESULT:    -6.661      0.927      2.783
REMARK INTER + INTRA:          -6.855
REMARK INTER:                  -6.855
REMARK INTRA:                   0.000
REMARK UNBOUND:                 0.000
REMARK  Name = C:\Users\HP\Downloads\Anthraquinone_pdb\AD17.pdb
REMARK  2 active torsions:
REMARK  status: ('A' for Active; 'I' for Inactive)
REMARK    1  A    between atoms: C_1  and  C_2
REMARK    2  A    between atoms: C_7  and  O_8
REMARK                            x       y       z     vdW  Elec       q    Type
REMARK                         _______ _______ _______ _____ _____    ______ ____
ROOT
ATOM      1  C   UNL     1      16.492  60.069  31.980  0.00  0.00    +0.047 C 
ATOM      2  C   UNL     1      17.361  59.294  31.030  0.00  0.00    -0.008 A 
ATOM      3  C   UNL     1      18.734  59.545  30.933  0.00  0.00    +0.120 A 
ATOM      6  C   UNL     1      19.539  58.825  30.050  0.00  0.00    +0.058 A 
ATOM      7  C   UNL     1      18.966  57.832  29.244  0.00  0.00    +0.037 A 
ATOM      8  C   UNL     1      19.813  57.065  28.307  0.00  0.00    +0.195 C 
ATOM      9  C   UNL     1      19.192  56.021  27.464  0.00  0.00    +0.033 A 
ATOM     10  C   UNL     1      17.825  55.765  27.554  0.00  0.00    +0.033 A 
ATOM     11  C   UNL     1      16.981  56.529  28.491  0.00  0.00    +0.195 C 
ATOM     12  O   UNL     1      15.779  56.300  28.569  0.00  0.00    -0.287 OA
ATOM     13  C   UNL     1      17.239  54.775  26.754  0.00  0.00    +0.012 A 
ATOM     14  C   UNL     1      18.025  54.044  25.863  0.00  0.00    +0.001 A 
ATOM     15  C   UNL     1      19.392  54.299  25.771  0.00  0.00    +0.001 A 
ATOM     16  C   UNL     1      19.978  55.285  26.568  0.00  0.00    +0.012 A 
ATOM     17  O   UNL     1      21.015  57.295  28.231  0.00  0.00    -0.287 OA
ATOM     18  C   UNL     1      17.600  57.571  29.331  0.00  0.00    +0.034 A 
ATOM     19  C   UNL     1      16.799  58.299  30.220  0.00  0.00    +0.019 A 
ENDROOT
BRANCH   3   4
ATOM      4  O   UNL     1      19.276  60.516  31.726  0.00  0.00    -0.506 OA
ATOM      5  H   UNL     1      19.540  60.128  32.575  0.00  0.00    +0.292 HD
ENDBRANCH   3   4
TORSDOF 1
ENDMDL
MODEL 3
REMARK VINA RESULT:    -6.432      3.927      5.101
REMARK INTER + INTRA:          -6.620
REMARK INTER:                  -6.620
REMARK INTRA:                   0.000
REMARK UNBOUND:                 0.000
REMARK  Name = C:\Users\HP\Downloads\Anthraquinone_pdb\AD17.pdb
REMARK  2 active torsions:
REMARK  status: ('A' for Active; 'I' for Inactive)
REMARK    1  A    between atoms: C_1  and  C_2
REMARK    2  A    between atoms: C_7  and  O_8
REMARK                            x       y       z     vdW  Elec       q    Type
REMARK                         _______ _______ _______ _____ _____    ______ ____
ROOT
ATOM      1  C   UNL     1      20.159  52.558  29.716  0.00  0.00    +0.047 C 
ATOM      2  C   UNL     1      19.916  53.479  28.554  0.00  0.00    -0.008 A 
ATOM      3  C   UNL     1      18.619  53.825  28.160  0.00  0.00    +0.120 A 
ATOM      6  C   UNL     1      18.396  54.678  27.079  0.00  0.00    +0.058 A 
ATOM      7  C   UNL     1      19.487  55.200  26.373  0.00  0.00    +0.037 A 
ATOM      8  C   UNL     1      19.258  56.105  25.228  0.00  0.00    +0.195 C 
ATOM      9  C   UNL     1      20.422  56.647  24.493  0.00  0.00    +0.033 A 
ATOM     10  C   UNL     1      21.718  56.308  24.879  0.00  0.00    +0.033 A 
ATOM     11  C   UNL     1      21.946  55.406  26.023  0.00  0.00    +0.195 C 
ATOM     12  O   UNL     1      23.086  55.110  26.360  0.00  0.00    -0.287 OA
ATOM     13  C   UNL     1      22.817  56.822  24.181  0.00  0.00    +0.012 A 
ATOM     14  C   UNL     1      22.618  57.676  23.096  0.00  0.00    +0.001 A 
ATOM     15  C   UNL     1      21.322  58.017  22.709  0.00  0.00    +0.001 A 
ATOM     16  C   UNL     1      20.224  57.505  23.404  0.00  0.00    +0.012 A 
ATOM     17  O   UNL     1      18.116  56.401  24.893  0.00  0.00    -0.287 OA
ATOM     18  C   UNL     1      20.786  54.865  26.755  0.00  0.00    +0.034 A 
ATOM     19  C   UNL     1      21.000  54.007  27.841  0.00  0.00    +0.019 A 
ENDROOT
BRANCH   3   4
ATOM      4  O   UNL     1      17.567  53.306  28.859  0.00  0.00    -0.506 OA
ATOM      5  H   UNL     1      17.693  52.349  28.968  0.00  0.00    +0.292 HD
ENDBRANCH   3   4
TORSDOF 1
ENDMDL
MODEL 4
REMARK VINA RESULT:    -6.358     28.073     29.242
REMARK INTER + INTRA:          -6.544
REMARK INTER:                  -6.544
REMARK INTRA:                   0.000
REMARK UNBOUND:                 0.000
REMARK  Name = C:\Users\HP\Downloads\Anthraquinone_pdb\AD17.pdb
REMARK  2 active torsions:
REMARK  status: ('A' for Active; 'I' for Inactive)
REMARK    1  A    between atoms: C_1  and  C_2
REMARK    2  A    between atoms: C_7  and  O_8
REMARK                            x       y       z     vdW  Elec       q    Type
REMARK                         _______ _______ _______ _____ _____    ______ ____
ROOT
ATOM      1  C   UNL     1      21.507  73.622   3.870  0.00  0.00    +0.047 C 
ATOM      2  C   UNL     1      20.393  72.615   3.822  0.00  0.00    -0.008 A 
ATOM      3  C   UNL     1      19.908  72.012   4.988  0.00  0.00    +0.120 A 
ATOM      6  C   UNL     1      18.875  71.076   4.941  0.00  0.00    +0.058 A 
ATOM      7  C   UNL     1      18.310  70.731   3.707  0.00  0.00    +0.037 A 
ATOM      8  C   UNL     1      17.214  69.741   3.650  0.00  0.00    +0.195 C 
ATOM      9  C   UNL     1      16.630  69.388   2.338  0.00  0.00    +0.033 A 
ATOM     10  C   UNL     1      17.106  69.984   1.171  0.00  0.00    +0.033 A 
ATOM     11  C   UNL     1      18.198  70.973   1.229  0.00  0.00    +0.195 C 
ATOM     12  O   UNL     1      18.614  71.496   0.202  0.00  0.00    -0.287 OA
ATOM     13  C   UNL     1      16.550  69.647  -0.069  0.00  0.00    +0.012 A 
ATOM     14  C   UNL     1      15.516  68.713  -0.140  0.00  0.00    +0.001 A 
ATOM     15  C   UNL     1      15.038  68.116   1.026  0.00  0.00    +0.001 A 
ATOM     16  C   UNL     1      15.592  68.450   2.264  0.00  0.00    +0.012 A 
ATOM     17  O   UNL     1      16.798  69.219   4.678  0.00  0.00    -0.287 OA
ATOM     18  C   UNL     1      18.781  71.324   2.537  0.00  0.00    +0.034 A 
ATOM     19  C   UNL     1      19.820  72.263   2.594  0.00  0.00    +0.019 A 
ENDROOT
BRANCH   3   4
ATOM      4  O   UNL     1      20.471  72.360   6.183  0.00  0.00    -0.506 OA
ATOM      5  H   UNL     1      21.438  72.300   6.112  0.00  0.00    +0.292 HD
ENDBRANCH   3   4
TORSDOF 1
ENDMDL
MODEL 5
REMARK VINA RESULT:    -6.195     16.486     18.628
REMARK INTER + INTRA:          -6.376
REMARK INTER:                  -6.376
REMARK INTRA:                   0.000
REMARK UNBOUND:                 0.000
REMARK  Name = C:\Users\HP\Downloads\Anthraquinone_pdb\AD17.pdb
REMARK  2 active torsions:
REMARK  status: ('A' for Active; 'I' for Inactive)
REMARK    1  A    between atoms: C_1  and  C_2
REMARK    2  A    between atoms: C_7  and  O_8
REMARK                            x       y       z     vdW  Elec       q    Type
REMARK                         _______ _______ _______ _____ _____    ______ ____
ROOT
ATOM      1  C   UNL     1      15.846  38.363  25.065  0.00  0.00    +0.047 C 
ATOM      2  C   UNL     1      15.501  38.814  23.674  0.00  0.00    -0.008 A 
ATOM      3  C   UNL     1      14.672  38.048  22.847  0.00  0.00    +0.120 A 
ATOM      6  C   UNL     1      14.355  38.467  21.555  0.00  0.00    +0.058 A 
ATOM      7  C   UNL     1      14.873  39.677  21.074  0.00  0.00    +0.037 A 
ATOM      8  C   UNL     1      14.540  40.127  19.707  0.00  0.00    +0.195 C 
ATOM      9  C   UNL     1      15.095  41.406  19.214  0.00  0.00    +0.033 A 
ATOM     10  C   UNL     1      15.922  42.176  20.031  0.00  0.00    +0.033 A 
ATOM     11  C   UNL     1      16.252  41.726  21.396  0.00  0.00    +0.195 C 
ATOM     12  O   UNL     1      16.978  42.406  22.112  0.00  0.00    -0.287 OA
ATOM     13  C   UNL     1      16.447  43.387  19.562  0.00  0.00    +0.012 A 
ATOM     14  C   UNL     1      16.143  43.825  18.272  0.00  0.00    +0.001 A 
ATOM     15  C   UNL     1      15.317  43.057  17.454  0.00  0.00    +0.001 A 
ATOM     16  C   UNL     1      14.792  41.849  17.920  0.00  0.00    +0.012 A 
ATOM     17  O   UNL     1      13.812  39.447  18.992  0.00  0.00    -0.287 OA
ATOM     18  C   UNL     1      15.699  40.451  21.887  0.00  0.00    +0.034 A 
ATOM     19  C   UNL     1      16.013  40.021  23.182  0.00  0.00    +0.019 A 
ENDROOT
BRANCH   3   4
ATOM      4  O   UNL     1      14.176  36.872  23.333  0.00  0.00    -0.506 OA
ATOM      5  H   UNL     1      13.289  36.721  22.968  0.00  0.00    +0.292 HD
ENDBRANCH   3   4
TORSDOF 1
ENDMDL
MODEL 6
REMARK VINA RESULT:    -6.159     23.721     25.687
REMARK INTER + INTRA:          -6.339
REMARK INTER:                  -6.339
REMARK INTRA:                   0.000
REMARK UNBOUND:                 0.000
REMARK  Name = C:\Users\HP\Downloads\Anthraquinone_pdb\AD17.pdb
REMARK  2 active torsions:
REMARK  status: ('A' for Active; 'I' for Inactive)
REMARK    1  A    between atoms: C_1  and  C_2
REMARK    2  A    between atoms: C_7  and  O_8
REMARK                            x       y       z     vdW  Elec       q    Type
REMARK                         _______ _______ _______ _____ _____    ______ ____
ROOT
ATOM      1  C   UNL     1      20.390  59.210   1.059  0.00  0.00    +0.047 C 
ATOM      2  C   UNL     1      21.312  59.599   2.179  0.00  0.00    -0.008 A 
ATOM      3  C   UNL     1      21.901  58.634   3.004  0.00  0.00    +0.120 A 
ATOM      6  C   UNL     1      22.756  58.998   4.045  0.00  0.00    +0.058 A 
ATOM      7  C   UNL     1      23.032  60.353   4.271  0.00  0.00    +0.037 A 
ATOM      8  C   UNL     1      23.937  60.745   5.371  0.00  0.00    +0.195 C 
ATOM      9  C   UNL     1      24.217  62.180   5.597  0.00  0.00    +0.033 A 
ATOM     10  C   UNL     1      23.635  63.148   4.780  0.00  0.00    +0.033 A 
ATOM     11  C   UNL     1      22.733  62.755   3.682  0.00  0.00    +0.195 C 
ATOM     12  O   UNL     1      22.223  63.609   2.965  0.00  0.00    -0.287 OA
ATOM     13  C   UNL     1      23.902  64.506   4.997  0.00  0.00    +0.012 A 
ATOM     14  C   UNL     1      24.753  64.893   6.033  0.00  0.00    +0.001 A 
ATOM     15  C   UNL     1      25.336  63.926   6.850  0.00  0.00    +0.001 A 
ATOM     16  C   UNL     1      25.071  62.571   6.636  0.00  0.00    +0.012 A 
ATOM     17  O   UNL     1      24.447  59.891   6.087  0.00  0.00    -0.287 OA
ATOM     18  C   UNL     1      22.453  61.325   3.457  0.00  0.00    +0.034 A 
ATOM     19  C   UNL     1      21.596  60.951   2.415  0.00  0.00    +0.019 A 
ENDROOT
BRANCH   3   4
ATOM      4  O   UNL     1      21.620  57.319   2.769  0.00  0.00    -0.506 OA
ATOM      5  H   UNL     1      21.871  56.793   3.546  0.00  0.00    +0.292 HD
ENDBRANCH   3   4
TORSDOF 1
ENDMDL
MODEL 7
REMARK VINA RESULT:    -6.132     21.733     24.167
REMARK INTER + INTRA:          -6.311
REMARK INTER:                  -6.311
REMARK INTRA:                   0.000
REMARK UNBOUND:                 0.000
REMARK  Name = C:\Users\HP\Downloads\Anthraquinone_pdb\AD17.pdb
REMARK  2 active torsions:
REMARK  status: ('A' for Active; 'I' for Inactive)
REMARK    1  A    between atoms: C_1  and  C_2
REMARK    2  A    between atoms: C_7  and  O_8
REMARK                            x       y       z     vdW  Elec       q    Type
REMARK                         _______ _______ _______ _____ _____    ______ ____
ROOT
ATOM      1  C   UNL     1      18.367  48.227   2.933  0.00  0.00    +0.047 C 
ATOM      2  C   UNL     1      19.229  48.669   4.082  0.00  0.00    -0.008 A 
ATOM      3  C   UNL     1      19.170  49.978   4.572  0.00  0.00    +0.120 A 
ATOM      6  C   UNL     1      19.972  50.387   5.638  0.00  0.00    +0.058 A 
ATOM      7  C   UNL     1      20.854  49.474   6.230  0.00  0.00    +0.037 A 
ATOM      8  C   UNL     1      21.706  49.900   7.359  0.00  0.00    +0.195 C 
ATOM      9  C   UNL     1      22.631  48.923   7.972  0.00  0.00    +0.033 A 
ATOM     10  C   UNL     1      22.697  47.617   7.490  0.00  0.00    +0.033 A 
ATOM     11  C   UNL     1      21.845  47.192   6.364  0.00  0.00    +0.195 C 
ATOM     12  O   UNL     1      21.905  46.042   5.943  0.00  0.00    -0.287 OA
ATOM     13  C   UNL     1      23.575  46.695   8.073  0.00  0.00    +0.012 A 
ATOM     14  C   UNL     1      24.388  47.082   9.139  0.00  0.00    +0.001 A 
ATOM     15  C   UNL     1      24.323  48.388   9.623  0.00  0.00    +0.001 A 
ATOM     16  C   UNL     1      23.449  49.310   9.043  0.00  0.00    +0.012 A 
ATOM     17  O   UNL     1      21.644  51.050   7.780  0.00  0.00    -0.287 OA
ATOM     18  C   UNL     1      20.923  48.166   5.753  0.00  0.00    +0.034 A 
ATOM     19  C   UNL     1      20.114  47.764   4.682  0.00  0.00    +0.019 A 
ENDROOT
BRANCH   3   4
ATOM      4  O   UNL     1      18.305  50.855   3.983  0.00  0.00    -0.506 OA
ATOM      5  H   UNL     1      18.809  51.516   3.481  0.00  0.00    +0.292 HD
ENDBRANCH   3   4
TORSDOF 1
ENDMDL
MODEL 8
REMARK VINA RESULT:    -6.126     28.139     29.713
REMARK INTER + INTRA:          -6.305
REMARK INTER:                  -6.305
REMARK INTRA:                   0.000
REMARK UNBOUND:                 0.000
REMARK  Name = C:\Users\HP\Downloads\Anthraquinone_pdb\AD17.pdb
REMARK  2 active torsions:
REMARK  status: ('A' for Active; 'I' for Inactive)
REMARK    1  A    between atoms: C_1  and  C_2
REMARK    2  A    between atoms: C_7  and  O_8
REMARK                            x       y       z     vdW  Elec       q    Type
REMARK                         _______ _______ _______ _____ _____    ______ ____
ROOT
ATOM      1  C   UNL     1      14.513  67.738   1.045  0.00  0.00    +0.047 C 
ATOM      2  C   UNL     1      15.636  68.716   1.244  0.00  0.00    -0.008 A 
ATOM      3  C   UNL     1      16.234  69.365   0.159  0.00  0.00    +0.120 A 
ATOM      6  C   UNL     1      17.278  70.272   0.346  0.00  0.00    +0.058 A 
ATOM      7  C   UNL     1      17.737  70.541   1.642  0.00  0.00    +0.037 A 
ATOM      8  C   UNL     1      18.841  71.500   1.847  0.00  0.00    +0.195 C 
ATOM      9  C   UNL     1      19.315  71.771   3.221  0.00  0.00    +0.033 A 
ATOM     10  C   UNL     1      18.724  71.129   4.309  0.00  0.00    +0.033 A 
ATOM     11  C   UNL     1      17.621  70.173   4.103  0.00  0.00    +0.195 C 
ATOM     12  O   UNL     1      17.103  69.611   5.062  0.00  0.00    -0.287 OA
ATOM     13  C   UNL     1      19.175  71.388   5.609  0.00  0.00    +0.012 A 
ATOM     14  C   UNL     1      20.218  72.290   5.820  0.00  0.00    +0.001 A 
ATOM     15  C   UNL     1      20.810  72.934   4.733  0.00  0.00    +0.001 A 
ATOM     16  C   UNL     1      20.362  72.677   3.435  0.00  0.00    +0.012 A 
ATOM     17  O   UNL     1      19.358  72.063   0.888  0.00  0.00    -0.287 OA
ATOM     18  C   UNL     1      17.150  69.902   2.733  0.00  0.00    +0.034 A 
ATOM     19  C   UNL     1      16.103  68.993   2.536  0.00  0.00    +0.019 A 
ENDROOT
BRANCH   3   4
ATOM      4  O   UNL     1      15.774  69.092  -1.097  0.00  0.00    -0.506 OA
ATOM      5  H   UNL     1      14.948  68.583  -1.034  0.00  0.00    +0.292 HD
ENDBRANCH   3   4
TORSDOF 1
ENDMDL
MODEL 9
REMARK VINA RESULT:    -6.102     22.688     23.228
REMARK INTER + INTRA:          -6.280
REMARK INTER:                  -6.280
REMARK INTRA:                   0.000
REMARK UNBOUND:                 0.000
REMARK  Name = C:\Users\HP\Downloads\Anthraquinone_pdb\AD17.pdb
REMARK  2 active torsions:
REMARK  status: ('A' for Active; 'I' for Inactive)
REMARK    1  A    between atoms: C_1  and  C_2
REMARK    2  A    between atoms: C_7  and  O_8
REMARK                            x       y       z     vdW  Elec       q    Type
REMARK                         _______ _______ _______ _____ _____    ______ ____
ROOT
ATOM      1  C   UNL     1      27.587  47.026   9.614  0.00  0.00    +0.047 C 
ATOM      2  C   UNL     1      26.186  47.333   9.169  0.00  0.00    -0.008 A 
ATOM      3  C   UNL     1      25.110  46.522   9.546  0.00  0.00    +0.120 A 
ATOM      6  C   UNL     1      23.809  46.808   9.130  0.00  0.00    +0.058 A 
ATOM      7  C   UNL     1      23.572  47.927   8.320  0.00  0.00    +0.037 A 
ATOM      8  C   UNL     1      22.197  48.236   7.877  0.00  0.00    +0.195 C 
ATOM      9  C   UNL     1      21.965  49.420   7.021  0.00  0.00    +0.033 A 
ATOM     10  C   UNL     1      23.032  50.233   6.640  0.00  0.00    +0.033 A 
ATOM     11  C   UNL     1      24.403  49.925   7.085  0.00  0.00    +0.195 C 
ATOM     12  O   UNL     1      25.338  50.642   6.749  0.00  0.00    -0.287 OA
ATOM     13  C   UNL     1      22.808  51.354   5.830  0.00  0.00    +0.012 A 
ATOM     14  C   UNL     1      21.516  51.658   5.401  0.00  0.00    +0.001 A 
ATOM     15  C   UNL     1      20.449  50.846   5.781  0.00  0.00    +0.001 A 
ATOM     16  C   UNL     1      20.669  49.728   6.589  0.00  0.00    +0.012 A 
ATOM     17  O   UNL     1      21.263  47.518   8.214  0.00  0.00    -0.287 OA
ATOM     18  C   UNL     1      24.635  48.744   7.937  0.00  0.00    +0.034 A 
ATOM     19  C   UNL     1      25.937  48.448   8.359  0.00  0.00    +0.019 A 
ENDROOT
BRANCH   3   4
ATOM      4  O   UNL     1      25.359  45.436  10.336  0.00  0.00    -0.506 OA
ATOM      5  H   UNL     1      24.829  44.684  10.025  0.00  0.00    +0.292 HD
ENDBRANCH   3   4
TORSDOF 1
ENDMDL
