MODEL 1
REMARK VINA RESULT:    -6.127      0.000      0.000
REMARK INTER + INTRA:          -7.423
REMARK INTER:                  -7.201
REMARK INTRA:                  -0.221
REMARK UNBOUND:                -0.221
REMARK  Name = C:\Users\HP\Downloads\Anthraquinone_pdb\AD19.pdb
REMARK  7 active torsions:
REMARK  status: ('A' for Active; 'I' for Inactive)
REMARK    1  A    between atoms: C_1  and  O_2
REMARK    2  A    between atoms: O_2  and  C_3
REMARK    3  A    between atoms: C_7  and  O_8
REMARK    4  A    between atoms: C_11  and  C_12
REMARK    5  A    between atoms: C_16  and  O_17
REMARK    6  A    between atoms: C_19  and  O_20
REMARK    7  A    between atoms: O_20  and  C_21
REMARK                            x       y       z     vdW  Elec       q    Type
REMARK                         _______ _______ _______ _____ _____    ______ ____
ROOT
ATOM      3  C   UNL     1      23.790  57.088  25.446  0.00  0.00    +0.147 C 
ATOM      4  C   UNL     1      23.066  56.874  26.799  0.00  0.00    +0.152 C 
ATOM      7  C   UNL     1      21.850  55.957  26.514  0.00  0.00    +0.055 C 
ATOM      8  C   UNL     1      20.852  56.691  25.582  0.00  0.00    +0.026 C 
ATOM      9  C   UNL     1      19.680  55.749  25.243  0.00  0.00    +0.121 C 
ATOM     10  C   UNL     1      19.001  55.342  26.557  0.00  0.00    +0.024 C 
ATOM     11  C   UNL     1      19.967  54.527  27.450  0.00  0.00    +0.024 C 
ATOM     12  C   UNL     1      19.315  53.955  28.732  0.00  0.00    +0.007 C 
ATOM     13  C   UNL     1      17.866  53.490  28.579  0.00  0.00    +0.003 C 
ATOM     14  C   UNL     1      17.008  54.447  27.754  0.00  0.00    -0.014 C 
ATOM     15  C   UNL     1      16.804  55.787  28.478  0.00  0.00    +0.007 C 
ATOM     16  C   UNL     1      17.665  54.624  26.376  0.00  0.00    +0.009 C 
ATOM     19  C   UNL     1      21.504  57.248  24.302  0.00  0.00    +0.009 C 
ATOM     20  C   UNL     1      21.195  55.402  27.796  0.00  0.00    +0.124 C 
ATOM     23  C   UNL     1      22.874  57.899  24.516  0.00  0.00    +0.034 C 
ENDROOT
BRANCH   3   2
ATOM      1  C   UNL     1      24.648  55.694  23.658  0.00  0.00    +0.194 C 
ATOM      2  O   UNL     1      24.093  55.778  24.952  0.00  0.00    -0.377 OA
ENDBRANCH   3   2
BRANCH   4   5
ATOM      5  O   UNL     1      22.578  58.082  27.407  0.00  0.00    -0.377 OA
ATOM      6  C   UNL     1      23.512  58.785  28.210  0.00  0.00    +0.194 C 
ENDBRANCH   4   5
BRANCH   9  17
ATOM     17  O   UNL     1      18.757  56.417  24.386  0.00  0.00    -0.391 OA
ATOM     18  H   UNL     1      18.884  56.064  23.487  0.00  0.00    +0.210 HD
ENDBRANCH   9  17
BRANCH  20  21
ATOM     21  O   UNL     1      20.783  56.445  28.676  0.00  0.00    -0.391 OA
ATOM     22  H   UNL     1      20.197  56.053  29.349  0.00  0.00    +0.210 HD
ENDBRANCH  20  21
TORSDOF 4
ENDMDL
MODEL 2
REMARK VINA RESULT:    -5.879      1.640      5.570
REMARK INTER + INTRA:          -7.131
REMARK INTER:                  -6.899
REMARK INTRA:                  -0.232
REMARK UNBOUND:                -0.221
REMARK  Name = C:\Users\HP\Downloads\Anthraquinone_pdb\AD19.pdb
REMARK  7 active torsions:
REMARK  status: ('A' for Active; 'I' for Inactive)
REMARK    1  A    between atoms: C_1  and  O_2
REMARK    2  A    between atoms: O_2  and  C_3
REMARK    3  A    between atoms: C_7  and  O_8
REMARK    4  A    between atoms: C_11  and  C_12
REMARK    5  A    between atoms: C_16  and  O_17
REMARK    6  A    between atoms: C_19  and  O_20
REMARK    7  A    between atoms: O_20  and  C_21
REMARK                            x       y       z     vdW  Elec       q    Type
REMARK                         _______ _______ _______ _____ _____    ______ ____
ROOT
ATOM      3  C   UNL     1      18.837  56.367  29.220  0.00  0.00    +0.147 C 
ATOM      4  C   UNL     1      20.362  56.547  29.010  0.00  0.00    +0.152 C 
ATOM      7  C   UNL     1      20.575  56.818  27.499  0.00  0.00    +0.055 C 
ATOM      8  C   UNL     1      20.152  55.571  26.681  0.00  0.00    +0.026 C 
ATOM      9  C   UNL     1      20.296  55.872  25.176  0.00  0.00    +0.121 C 
ATOM     10  C   UNL     1      21.762  56.234  24.902  0.00  0.00    +0.024 C 
ATOM     11  C   UNL     1      22.160  57.532  25.644  0.00  0.00    +0.024 C 
ATOM     12  C   UNL     1      23.580  58.045  25.306  0.00  0.00    +0.007 C 
ATOM     13  C   UNL     1      24.021  57.847  23.855  0.00  0.00    +0.003 C 
ATOM     14  C   UNL     1      23.645  56.479  23.290  0.00  0.00    -0.014 C 
ATOM     15  C   UNL     1      24.424  55.350  23.983  0.00  0.00    +0.007 C 
ATOM     16  C   UNL     1      22.124  56.301  23.420  0.00  0.00    +0.009 C 
ATOM     19  C   UNL     1      18.733  55.072  27.014  0.00  0.00    +0.009 C 
ATOM     20  C   UNL     1      21.997  57.315  27.167  0.00  0.00    +0.124 C 
ATOM     23  C   UNL     1      18.384  55.084  28.504  0.00  0.00    +0.034 C 
ENDROOT
BRANCH   3   2
ATOM      1  C   UNL     1      16.845  57.717  28.930  0.00  0.00    +0.194 C 
ATOM      2  O   UNL     1      18.227  57.557  28.704  0.00  0.00    -0.377 OA
ENDBRANCH   3   2
BRANCH   4   5
ATOM      5  O   UNL     1      21.148  55.398  29.369  0.00  0.00    -0.377 OA
ATOM      6  C   UNL     1      21.245  55.131  30.758  0.00  0.00    +0.194 C 
ENDBRANCH   4   5
BRANCH   9  17
ATOM     17  O   UNL     1      19.910  54.729  24.417  0.00  0.00    -0.391 OA
ATOM     18  H   UNL     1      20.723  54.262  24.157  0.00  0.00    +0.210 HD
ENDBRANCH   9  17
BRANCH  20  21
ATOM     21  O   UNL     1      22.995  56.400  27.610  0.00  0.00    -0.391 OA
ATOM     22  H   UNL     1      23.753  56.467  27.000  0.00  0.00    +0.210 HD
ENDBRANCH  20  21
TORSDOF 4
ENDMDL
MODEL 3
REMARK VINA RESULT:    -5.779     15.609     17.766
REMARK INTER + INTRA:          -7.014
REMARK INTER:                  -6.761
REMARK INTRA:                  -0.253
REMARK UNBOUND:                -0.221
REMARK  Name = C:\Users\HP\Downloads\Anthraquinone_pdb\AD19.pdb
REMARK  7 active torsions:
REMARK  status: ('A' for Active; 'I' for Inactive)
REMARK    1  A    between atoms: C_1  and  O_2
REMARK    2  A    between atoms: O_2  and  C_3
REMARK    3  A    between atoms: C_7  and  O_8
REMARK    4  A    between atoms: C_11  and  C_12
REMARK    5  A    between atoms: C_16  and  O_17
REMARK    6  A    between atoms: C_19  and  O_20
REMARK    7  A    between atoms: O_20  and  C_21
REMARK                            x       y       z     vdW  Elec       q    Type
REMARK                         _______ _______ _______ _____ _____    ______ ____
ROOT
ATOM      3  C   UNL     1      16.100  38.448  24.546  0.00  0.00    +0.147 C 
ATOM      4  C   UNL     1      14.988  38.736  23.506  0.00  0.00    +0.152 C 
ATOM      7  C   UNL     1      15.655  39.515  22.344  0.00  0.00    +0.055 C 
ATOM      8  C   UNL     1      16.157  40.889  22.858  0.00  0.00    +0.026 C 
ATOM      9  C   UNL     1      16.884  41.627  21.718  0.00  0.00    +0.121 C 
ATOM     10  C   UNL     1      15.894  41.806  20.559  0.00  0.00    +0.024 C 
ATOM     11  C   UNL     1      15.464  40.436  19.982  0.00  0.00    +0.024 C 
ATOM     12  C   UNL     1      14.578  40.531  18.717  0.00  0.00    +0.007 C 
ATOM     13  C   UNL     1      14.924  41.671  17.758  0.00  0.00    +0.003 C 
ATOM     14  C   UNL     1      15.229  42.988  18.469  0.00  0.00    -0.014 C 
ATOM     15  C   UNL     1      13.979  43.560  19.156  0.00  0.00    +0.007 C 
ATOM     16  C   UNL     1      16.380  42.750  19.460  0.00  0.00    +0.009 C 
ATOM     19  C   UNL     1      17.048  40.787  24.111  0.00  0.00    +0.009 C 
ATOM     20  C   UNL     1      14.761  39.618  21.091  0.00  0.00    +0.124 C 
ATOM     23  C   UNL     1      16.564  39.780  25.158  0.00  0.00    +0.034 C 
ENDROOT
BRANCH   3   2
ATOM      1  C   UNL     1      18.264  37.358  24.577  0.00  0.00    +0.194 C 
ATOM      2  O   UNL     1      17.131  37.753  23.836  0.00  0.00    -0.377 OA
ENDBRANCH   3   2
BRANCH   4   5
ATOM      5  O   UNL     1      13.901  39.533  24.006  0.00  0.00    -0.377 OA
ATOM      6  C   UNL     1      12.825  38.810  24.583  0.00  0.00    +0.194 C 
ENDBRANCH   4   5
BRANCH   9  17
ATOM     17  O   UNL     1      17.348  42.893  22.182  0.00  0.00    -0.391 OA
ATOM     18  H   UNL     1      16.576  43.483  22.244  0.00  0.00    +0.210 HD
ENDBRANCH   9  17
BRANCH  20  21
ATOM     21  O   UNL     1      13.506  40.227  21.385  0.00  0.00    -0.391 OA
ATOM     22  H   UNL     1      12.818  39.743  20.890  0.00  0.00    +0.210 HD
ENDBRANCH  20  21
TORSDOF 4
ENDMDL
MODEL 4
REMARK VINA RESULT:    -5.700     19.063     21.486
REMARK INTER + INTRA:          -6.921
REMARK INTER:                  -6.659
REMARK INTRA:                  -0.261
REMARK UNBOUND:                -0.221
REMARK  Name = C:\Users\HP\Downloads\Anthraquinone_pdb\AD19.pdb
REMARK  7 active torsions:
REMARK  status: ('A' for Active; 'I' for Inactive)
REMARK    1  A    between atoms: C_1  and  O_2
REMARK    2  A    between atoms: O_2  and  C_3
REMARK    3  A    between atoms: C_7  and  O_8
REMARK    4  A    between atoms: C_11  and  C_12
REMARK    5  A    between atoms: C_16  and  O_17
REMARK    6  A    between atoms: C_19  and  O_20
REMARK    7  A    between atoms: O_20  and  C_21
REMARK                            x       y       z     vdW  Elec       q    Type
REMARK                         _______ _______ _______ _____ _____    ______ ____
ROOT
ATOM      3  C   UNL     1      25.954  47.096   8.563  0.00  0.00    +0.147 C 
ATOM      4  C   UNL     1      25.442  47.382   7.129  0.00  0.00    +0.152 C 
ATOM      7  C   UNL     1      25.043  48.879   7.088  0.00  0.00    +0.055 C 
ATOM      8  C   UNL     1      23.851  49.127   8.048  0.00  0.00    +0.026 C 
ATOM      9  C   UNL     1      23.505  50.628   8.059  0.00  0.00    +0.121 C 
ATOM     10  C   UNL     1      23.148  51.045   6.626  0.00  0.00    +0.024 C 
ATOM     11  C   UNL     1      24.365  50.887   5.683  0.00  0.00    +0.024 C 
ATOM     12  C   UNL     1      24.131  51.422   4.250  0.00  0.00    +0.007 C 
ATOM     13  C   UNL     1      23.267  52.680   4.153  0.00  0.00    +0.003 C 
ATOM     14  C   UNL     1      22.046  52.648   5.070  0.00  0.00    -0.014 C 
ATOM     15  C   UNL     1      21.039  51.574   4.630  0.00  0.00    +0.007 C 
ATOM     16  C   UNL     1      22.528  52.436   6.514  0.00  0.00    +0.009 C 
ATOM     19  C   UNL     1      24.095  48.602   9.476  0.00  0.00    +0.009 C 
ATOM     20  C   UNL     1      24.796  49.402   5.657  0.00  0.00    +0.124 C 
ATOM     23  C   UNL     1      24.780  47.235   9.546  0.00  0.00    +0.034 C 
ENDROOT
BRANCH   3   2
ATOM      1  C   UNL     1      27.809  47.828   9.941  0.00  0.00    +0.194 C 
ATOM      2  O   UNL     1      27.011  48.035   8.797  0.00  0.00    -0.377 OA
ENDBRANCH   3   2
BRANCH   4   5
ATOM      5  O   UNL     1      24.295  46.607   6.744  0.00  0.00    -0.377 OA
ATOM      6  C   UNL     1      24.566  45.284   6.308  0.00  0.00    +0.194 C 
ENDBRANCH   4   5
BRANCH   9  17
ATOM     17  O   UNL     1      22.409  50.864   8.939  0.00  0.00    -0.391 OA
ATOM     18  H   UNL     1      22.404  50.148   9.599  0.00  0.00    +0.210 HD
ENDBRANCH   9  17
BRANCH  20  21
ATOM     21  O   UNL     1      23.795  48.645   4.982  0.00  0.00    -0.391 OA
ATOM     22  H   UNL     1      23.454  47.978   5.606  0.00  0.00    +0.210 HD
ENDBRANCH  20  21
TORSDOF 4
ENDMDL
MODEL 5
REMARK VINA RESULT:    -5.638      4.540      6.673
REMARK INTER + INTRA:          -6.848
REMARK INTER:                  -6.606
REMARK INTRA:                  -0.242
REMARK UNBOUND:                -0.221
REMARK  Name = C:\Users\HP\Downloads\Anthraquinone_pdb\AD19.pdb
REMARK  7 active torsions:
REMARK  status: ('A' for Active; 'I' for Inactive)
REMARK    1  A    between atoms: C_1  and  O_2
REMARK    2  A    between atoms: O_2  and  C_3
REMARK    3  A    between atoms: C_7  and  O_8
REMARK    4  A    between atoms: C_11  and  C_12
REMARK    5  A    between atoms: C_16  and  O_17
REMARK    6  A    between atoms: C_19  and  O_20
REMARK    7  A    between atoms: O_20  and  C_21
REMARK                            x       y       z     vdW  Elec       q    Type
REMARK                         _______ _______ _______ _____ _____    ______ ____
ROOT
ATOM      3  C   UNL     1      17.911  61.540  31.788  0.00  0.00    +0.147 C 
ATOM      4  C   UNL     1      19.166  60.633  31.728  0.00  0.00    +0.152 C 
ATOM      7  C   UNL     1      18.998  59.721  30.486  0.00  0.00    +0.055 C 
ATOM      8  C   UNL     1      17.777  58.786  30.688  0.00  0.00    +0.026 C 
ATOM      9  C   UNL     1      17.571  57.933  29.421  0.00  0.00    +0.121 C 
ATOM     10  C   UNL     1      18.849  57.118  29.183  0.00  0.00    +0.024 C 
ATOM     11  C   UNL     1      20.051  58.047  28.888  0.00  0.00    +0.024 C 
ATOM     12  C   UNL     1      21.348  57.300  28.495  0.00  0.00    +0.007 C 
ATOM     13  C   UNL     1      21.148  56.043  27.647  0.00  0.00    +0.003 C 
ATOM     14  C   UNL     1      19.985  55.173  28.119  0.00  0.00    -0.014 C 
ATOM     15  C   UNL     1      20.270  54.550  29.495  0.00  0.00    +0.007 C 
ATOM     16  C   UNL     1      18.708  56.029  28.121  0.00  0.00    +0.009 C 
ATOM     19  C   UNL     1      16.487  59.537  31.069  0.00  0.00    +0.009 C 
ATOM     20  C   UNL     1      20.290  58.968  30.108  0.00  0.00    +0.124 C 
ATOM     23  C   UNL     1      16.681  60.667  32.084  0.00  0.00    +0.034 C 
ENDROOT
BRANCH   3   2
ATOM      1  C   UNL     1      18.158  63.583  30.508  0.00  0.00    +0.194 C 
ATOM      2  O   UNL     1      17.849  62.208  30.522  0.00  0.00    -0.377 OA
ENDBRANCH   3   2
BRANCH   4   5
ATOM      5  O   UNL     1      19.342  59.788  32.878  0.00  0.00    -0.377 OA
ATOM      6  C   UNL     1      20.072  60.359  33.952  0.00  0.00    +0.194 C 
ENDBRANCH   4   5
BRANCH   9  17
ATOM     17  O   UNL     1      16.450  57.070  29.599  0.00  0.00    -0.391 OA
ATOM     18  H   UNL     1      16.342  56.558  28.778  0.00  0.00    +0.210 HD
ENDBRANCH   9  17
BRANCH  20  21
ATOM     21  O   UNL     1      20.780  58.179  31.189  0.00  0.00    -0.391 OA
ATOM     22  H   UNL     1      21.665  57.852  30.943  0.00  0.00    +0.210 HD
ENDBRANCH  20  21
TORSDOF 4
ENDMDL
MODEL 6
REMARK VINA RESULT:    -5.595     19.900     21.536
REMARK INTER + INTRA:          -6.797
REMARK INTER:                  -6.542
REMARK INTRA:                  -0.255
REMARK UNBOUND:                -0.221
REMARK  Name = C:\Users\HP\Downloads\Anthraquinone_pdb\AD19.pdb
REMARK  7 active torsions:
REMARK  status: ('A' for Active; 'I' for Inactive)
REMARK    1  A    between atoms: C_1  and  O_2
REMARK    2  A    between atoms: O_2  and  C_3
REMARK    3  A    between atoms: C_7  and  O_8
REMARK    4  A    between atoms: C_11  and  C_12
REMARK    5  A    between atoms: C_16  and  O_17
REMARK    6  A    between atoms: C_19  and  O_20
REMARK    7  A    between atoms: O_20  and  C_21
REMARK                            x       y       z     vdW  Elec       q    Type
REMARK                         _______ _______ _______ _____ _____    ______ ____
ROOT
ATOM      3  C   UNL     1      22.518  48.724   6.466  0.00  0.00    +0.147 C 
ATOM      4  C   UNL     1      24.004  49.161   6.538  0.00  0.00    +0.152 C 
ATOM      7  C   UNL     1      24.801  47.942   7.067  0.00  0.00    +0.055 C 
ATOM      8  C   UNL     1      24.357  47.617   8.516  0.00  0.00    +0.026 C 
ATOM      9  C   UNL     1      25.100  46.360   9.010  0.00  0.00    +0.121 C 
ATOM     10  C   UNL     1      26.607  46.644   8.951  0.00  0.00    +0.024 C 
ATOM     11  C   UNL     1      27.070  46.876   7.493  0.00  0.00    +0.024 C 
ATOM     12  C   UNL     1      28.602  47.027   7.331  0.00  0.00    +0.007 C 
ATOM     13  C   UNL     1      29.448  46.150   8.254  0.00  0.00    +0.003 C 
ATOM     14  C   UNL     1      28.923  46.097   9.688  0.00  0.00    -0.014 C 
ATOM     15  C   UNL     1      29.054  47.459  10.386  0.00  0.00    +0.007 C 
ATOM     16  C   UNL     1      27.469  45.598   9.654  0.00  0.00    +0.009 C 
ATOM     19  C   UNL     1      22.833  47.457   8.669  0.00  0.00    +0.009 C 
ATOM     20  C   UNL     1      26.328  48.105   6.916  0.00  0.00    +0.124 C 
ATOM     23  C   UNL     1      22.002  48.483   7.893  0.00  0.00    +0.034 C 
ENDROOT
BRANCH   3   2
ATOM      1  C   UNL     1      21.227  47.067   5.259  0.00  0.00    +0.194 C 
ATOM      2  O   UNL     1      22.494  47.553   5.642  0.00  0.00    -0.377 OA
ENDBRANCH   3   2
BRANCH   4   5
ATOM      5  O   UNL     1      24.253  50.269   7.420  0.00  0.00    -0.377 OA
ATOM      6  C   UNL     1      23.893  51.545   6.917  0.00  0.00    +0.194 C 
ENDBRANCH   4   5
BRANCH   9  17
ATOM     17  O   UNL     1      24.697  46.055  10.343  0.00  0.00    -0.391 OA
ATOM     18  H   UNL     1      23.881  45.528  10.288  0.00  0.00    +0.210 HD
ENDBRANCH   9  17
BRANCH  20  21
ATOM     21  O   UNL     1      26.803  49.278   7.571  0.00  0.00    -0.391 OA
ATOM     22  H   UNL     1      27.697  49.087   7.913  0.00  0.00    +0.210 HD
ENDBRANCH  20  21
TORSDOF 4
ENDMDL
MODEL 7
REMARK VINA RESULT:    -5.548      4.531      6.092
REMARK INTER + INTRA:          -6.742
REMARK INTER:                  -6.488
REMARK INTRA:                  -0.255
REMARK UNBOUND:                -0.221
REMARK  Name = C:\Users\HP\Downloads\Anthraquinone_pdb\AD19.pdb
REMARK  7 active torsions:
REMARK  status: ('A' for Active; 'I' for Inactive)
REMARK    1  A    between atoms: C_1  and  O_2
REMARK    2  A    between atoms: O_2  and  C_3
REMARK    3  A    between atoms: C_7  and  O_8
REMARK    4  A    between atoms: C_11  and  C_12
REMARK    5  A    between atoms: C_16  and  O_17
REMARK    6  A    between atoms: C_19  and  O_20
REMARK    7  A    between atoms: O_20  and  C_21
REMARK                            x       y       z     vdW  Elec       q    Type
REMARK                         _______ _______ _______ _____ _____    ______ ____
ROOT
ATOM      3  C   UNL     1      22.997  59.835  26.001  0.00  0.00    +0.147 C 
ATOM      4  C   UNL     1      22.600  59.500  27.461  0.00  0.00    +0.152 C 
ATOM      7  C   UNL     1      21.325  60.322  27.776  0.00  0.00    +0.055 C 
ATOM      8  C   UNL     1      21.657  61.836  27.737  0.00  0.00    +0.026 C 
ATOM      9  C   UNL     1      20.371  62.649  27.978  0.00  0.00    +0.121 C 
ATOM     10  C   UNL     1      19.806  62.250  29.348  0.00  0.00    +0.024 C 
ATOM     11  C   UNL     1      19.385  60.761  29.360  0.00  0.00    +0.024 C 
ATOM     12  C   UNL     1      18.672  60.314  30.659  0.00  0.00    +0.007 C 
ATOM     13  C   UNL     1      17.750  61.357  31.293  0.00  0.00    +0.003 C 
ATOM     14  C   UNL     1      18.343  62.765  31.298  0.00  0.00    -0.014 C 
ATOM     15  C   UNL     1      19.564  62.859  32.226  0.00  0.00    +0.007 C 
ATOM     16  C   UNL     1      18.682  63.154  29.849  0.00  0.00    +0.009 C 
ATOM     19  C   UNL     1      22.357  62.276  26.437  0.00  0.00    +0.009 C 
ATOM     20  C   UNL     1      20.627  59.882  29.080  0.00  0.00    +0.124 C 
ATOM     23  C   UNL     1      23.430  61.309  25.930  0.00  0.00    +0.034 C 
ENDROOT
BRANCH   3   2
ATOM      1  C   UNL     1      22.068  59.233  23.845  0.00  0.00    +0.194 C 
ATOM      2  O   UNL     1      21.845  59.537  25.203  0.00  0.00    -0.377 OA
ENDBRANCH   3   2
BRANCH   4   5
ATOM      5  O   UNL     1      23.599  59.839  28.438  0.00  0.00    -0.377 OA
ATOM      6  C   UNL     1      24.608  58.865  28.646  0.00  0.00    +0.194 C 
ENDBRANCH   4   5
BRANCH   9  17
ATOM     17  O   UNL     1      20.669  64.043  27.945  0.00  0.00    -0.391 OA
ATOM     18  H   UNL     1      20.687  64.316  27.010  0.00  0.00    +0.210 HD
ENDBRANCH   9  17
BRANCH  20  21
ATOM     21  O   UNL     1      21.504  59.954  30.201  0.00  0.00    -0.391 OA
ATOM     22  H   UNL     1      22.224  60.573  29.977  0.00  0.00    +0.210 HD
ENDBRANCH  20  21
TORSDOF 4
ENDMDL
MODEL 8
REMARK VINA RESULT:    -5.450     15.095     17.596
REMARK INTER + INTRA:          -6.627
REMARK INTER:                  -6.486
REMARK INTRA:                  -0.142
REMARK UNBOUND:                -0.221
REMARK  Name = C:\Users\HP\Downloads\Anthraquinone_pdb\AD19.pdb
REMARK  7 active torsions:
REMARK  status: ('A' for Active; 'I' for Inactive)
REMARK    1  A    between atoms: C_1  and  O_2
REMARK    2  A    between atoms: O_2  and  C_3
REMARK    3  A    between atoms: C_7  and  O_8
REMARK    4  A    between atoms: C_11  and  C_12
REMARK    5  A    between atoms: C_16  and  O_17
REMARK    6  A    between atoms: C_19  and  O_20
REMARK    7  A    between atoms: O_20  and  C_21
REMARK                            x       y       z     vdW  Elec       q    Type
REMARK                         _______ _______ _______ _____ _____    ______ ____
ROOT
ATOM      3  C   UNL     1      13.395  40.015  20.702  0.00  0.00    +0.147 C 
ATOM      4  C   UNL     1      13.915  39.225  21.931  0.00  0.00    +0.152 C 
ATOM      7  C   UNL     1      14.719  40.228  22.797  0.00  0.00    +0.055 C 
ATOM      8  C   UNL     1      15.965  40.712  22.013  0.00  0.00    +0.026 C 
ATOM      9  C   UNL     1      16.721  41.763  22.850  0.00  0.00    +0.121 C 
ATOM     10  C   UNL     1      17.130  41.110  24.177  0.00  0.00    +0.024 C 
ATOM     11  C   UNL     1      15.884  40.711  25.005  0.00  0.00    +0.024 C 
ATOM     12  C   UNL     1      16.209  40.177  26.420  0.00  0.00    +0.007 C 
ATOM     13  C   UNL     1      17.388  40.853  27.121  0.00  0.00    +0.003 C 
ATOM     14  C   UNL     1      18.583  41.093  26.201  0.00  0.00    -0.014 C 
ATOM     15  C   UNL     1      19.230  39.770  25.760  0.00  0.00    +0.007 C 
ATOM     16  C   UNL     1      18.112  41.936  25.005  0.00  0.00    +0.009 C 
ATOM     19  C   UNL     1      15.635  41.252  20.609  0.00  0.00    +0.009 C 
ATOM     20  C   UNL     1      15.051  39.684  24.202  0.00  0.00    +0.124 C 
ATOM     23  C   UNL     1      14.595  40.435  19.838  0.00  0.00    +0.034 C 
ENDROOT
BRANCH   3   2
ATOM      1  C   UNL     1      11.425  40.827  21.857  0.00  0.00    +0.194 C 
ATOM      2  O   UNL     1      12.655  41.121  21.232  0.00  0.00    -0.377 OA
ENDBRANCH   3   2
BRANCH   4   5
ATOM      5  O   UNL     1      14.783  38.127  21.604  0.00  0.00    -0.377 OA
ATOM      6  C   UNL     1      14.157  36.857  21.513  0.00  0.00    +0.194 C 
ENDBRANCH   4   5
BRANCH   9  17
ATOM     17  O   UNL     1      17.870  42.212  22.136  0.00  0.00    -0.391 OA
ATOM     18  H   UNL     1      17.567  42.853  21.468  0.00  0.00    +0.210 HD
ENDBRANCH   9  17
BRANCH  20  21
ATOM     21  O   UNL     1      15.773  38.456  24.138  0.00  0.00    -0.391 OA
ATOM     22  H   UNL     1      16.405  38.443  24.882  0.00  0.00    +0.210 HD
ENDBRANCH  20  21
TORSDOF 4
ENDMDL
MODEL 9
REMARK VINA RESULT:    -5.384     15.300     17.209
REMARK INTER + INTRA:          -6.550
REMARK INTER:                  -6.285
REMARK INTRA:                  -0.265
REMARK UNBOUND:                -0.221
REMARK  Name = C:\Users\HP\Downloads\Anthraquinone_pdb\AD19.pdb
REMARK  7 active torsions:
REMARK  status: ('A' for Active; 'I' for Inactive)
REMARK    1  A    between atoms: C_1  and  O_2
REMARK    2  A    between atoms: O_2  and  C_3
REMARK    3  A    between atoms: C_7  and  O_8
REMARK    4  A    between atoms: C_11  and  C_12
REMARK    5  A    between atoms: C_16  and  O_17
REMARK    6  A    between atoms: C_19  and  O_20
REMARK    7  A    between atoms: O_20  and  C_21
REMARK                            x       y       z     vdW  Elec       q    Type
REMARK                         _______ _______ _______ _____ _____    ______ ____
ROOT
ATOM      3  C   UNL     1      16.596  39.308  26.459  0.00  0.00    +0.147 C 
ATOM      4  C   UNL     1      15.362  39.472  25.535  0.00  0.00    +0.152 C 
ATOM      7  C   UNL     1      15.906  39.757  24.112  0.00  0.00    +0.055 C 
ATOM      8  C   UNL     1      16.658  41.113  24.103  0.00  0.00    +0.026 C 
ATOM      9  C   UNL     1      17.259  41.356  22.705  0.00  0.00    +0.121 C 
ATOM     10  C   UNL     1      16.109  41.363  21.689  0.00  0.00    +0.024 C 
ATOM     11  C   UNL     1      15.416  39.981  21.627  0.00  0.00    +0.024 C 
ATOM     12  C   UNL     1      14.339  39.860  20.523  0.00  0.00    +0.007 C 
ATOM     13  C   UNL     1      14.650  40.599  19.221  0.00  0.00    +0.003 C 
ATOM     14  C   UNL     1      15.238  41.992  19.441  0.00  0.00    -0.014 C 
ATOM     15  C   UNL     1      14.211  42.944  20.074  0.00  0.00    +0.007 C 
ATOM     16  C   UNL     1      16.507  41.853  20.298  0.00  0.00    +0.009 C 
ATOM     19  C   UNL     1      17.737  41.222  25.198  0.00  0.00    +0.009 C 
ATOM     20  C   UNL     1      14.824  39.650  23.018  0.00  0.00    +0.124 C 
ATOM     23  C   UNL     1      17.324  40.658  26.560  0.00  0.00    +0.034 C 
ENDROOT
BRANCH   3   2
ATOM      1  C   UNL     1      18.506  37.824  26.608  0.00  0.00    +0.194 C 
ATOM      2  O   UNL     1      17.390  38.270  25.871  0.00  0.00    -0.377 OA
ENDBRANCH   3   2
BRANCH   4   5
ATOM      5  O   UNL     1      14.489  40.555  25.901  0.00  0.00    -0.377 OA
ATOM      6  C   UNL     1      13.494  40.241  26.862  0.00  0.00    +0.194 C 
ENDBRANCH   4   5
BRANCH   9  17
ATOM     17  O   UNL     1      17.952  42.602  22.689  0.00  0.00    -0.391 OA
ATOM     18  H   UNL     1      17.446  43.226  23.240  0.00  0.00    +0.210 HD
ENDBRANCH   9  17
BRANCH  20  21
ATOM     21  O   UNL     1      13.727  40.524  23.269  0.00  0.00    -0.391 OA
ATOM     22  H   UNL     1      13.328  40.757  22.410  0.00  0.00    +0.210 HD
ENDBRANCH  20  21
TORSDOF 4
ENDMDL
