MODEL 1
REMARK VINA RESULT:    -7.048      0.000      0.000
REMARK INTER + INTRA:          -7.867
REMARK INTER:                  -8.078
REMARK INTRA:                   0.211
REMARK UNBOUND:                 0.211
REMARK  Name = C:\Users\HP\Downloads\Anthraquinone_pdb\AD21.pdb
REMARK  4 active torsions:
REMARK  status: ('A' for Active; 'I' for Inactive)
REMARK    1  A    between atoms: O_1  and  C_12
REMARK    2  A    between atoms: O_1  and  C_21
REMARK    3  A    between atoms: O_4  and  C_15
REMARK    4  A    between atoms: C_14  and  C_20
REMARK                            x       y       z     vdW  Elec       q    Type
REMARK                         _______ _______ _______ _____ _____    ______ ____
ROOT
ATOM      3  C   UNL     1      19.470  55.204  26.296  0.00  0.00    +0.145 A 
ATOM      4  C   UNL     1      18.775  54.143  25.718  0.00  0.00    +0.098 A 
ATOM      7  C   UNL     1      17.483  53.838  26.143  0.00  0.00    +0.131 A 
ATOM      8  C   UNL     1      16.882  54.595  27.149  0.00  0.00    +0.058 A 
ATOM      9  C   UNL     1      17.577  55.661  27.733  0.00  0.00    +0.040 A 
ATOM     10  C   UNL     1      16.933  56.455  28.798  0.00  0.00    +0.195 C 
ATOM     11  C   UNL     1      17.676  57.578  29.405  0.00  0.00    +0.033 A 
ATOM     12  C   UNL     1      17.077  58.340  30.416  0.00  0.00    +0.012 A 
ATOM     13  C   UNL     1      17.773  59.402  30.994  0.00  0.00    +0.001 A 
ATOM     14  C   UNL     1      19.064  59.707  30.567  0.00  0.00    +0.001 A 
ATOM     15  C   UNL     1      19.665  58.950  29.560  0.00  0.00    +0.012 A 
ATOM     16  C   UNL     1      18.971  57.884  28.978  0.00  0.00    +0.033 A 
ATOM     17  C   UNL     1      19.615  57.088  27.913  0.00  0.00    +0.198 C 
ATOM     18  O   UNL     1      20.750  57.379  27.557  0.00  0.00    -0.286 OA
ATOM     19  O   UNL     1      15.797  56.189  29.172  0.00  0.00    -0.287 OA
ATOM     22  C   UNL     1      18.871  55.965  27.307  0.00  0.00    +0.076 A 
ENDROOT
BRANCH   3   1
ATOM      1  O   UNL     1      20.733  55.467  25.848  0.00  0.00    -0.494 OA
ATOM      2  C   UNL     1      20.845  56.209  24.636  0.00  0.00    +0.277 C 
ENDBRANCH   3   1
BRANCH   4   5
ATOM      5  C   UNL     1      19.393  53.344  24.664  0.00  0.00    +0.266 C 
ATOM      6  O   UNL     1      18.741  52.731  23.819  0.00  0.00    -0.295 OA
ENDBRANCH   4   5
BRANCH   7  20
ATOM     20  O   UNL     1      16.787  52.804  25.590  0.00  0.00    -0.506 OA
ATOM     21  H   UNL     1      16.507  53.053  24.693  0.00  0.00    +0.292 HD
ENDBRANCH   7  20
TORSDOF 3
ENDMDL
MODEL 2
REMARK VINA RESULT:    -6.768     21.285     22.594
REMARK INTER + INTRA:          -7.547
REMARK INTER:                  -7.633
REMARK INTRA:                   0.086
REMARK UNBOUND:                 0.211
REMARK  Name = C:\Users\HP\Downloads\Anthraquinone_pdb\AD21.pdb
REMARK  4 active torsions:
REMARK  status: ('A' for Active; 'I' for Inactive)
REMARK    1  A    between atoms: O_1  and  C_12
REMARK    2  A    between atoms: O_1  and  C_21
REMARK    3  A    between atoms: O_4  and  C_15
REMARK    4  A    between atoms: C_14  and  C_20
REMARK                            x       y       z     vdW  Elec       q    Type
REMARK                         _______ _______ _______ _____ _____    ______ ____
ROOT
ATOM      3  C   UNL     1      23.523  46.479   8.053  0.00  0.00    +0.145 A 
ATOM      4  C   UNL     1      24.636  46.531   8.892  0.00  0.00    +0.098 A 
ATOM      7  C   UNL     1      25.213  47.759   9.212  0.00  0.00    +0.131 A 
ATOM      8  C   UNL     1      24.679  48.939   8.694  0.00  0.00    +0.058 A 
ATOM      9  C   UNL     1      23.562  48.891   7.851  0.00  0.00    +0.040 A 
ATOM     10  C   UNL     1      23.004  50.145   7.308  0.00  0.00    +0.195 C 
ATOM     11  C   UNL     1      21.824  50.081   6.421  0.00  0.00    +0.033 A 
ATOM     12  C   UNL     1      21.285  51.263   5.899  0.00  0.00    +0.012 A 
ATOM     13  C   UNL     1      20.171  51.210   5.061  0.00  0.00    +0.001 A 
ATOM     14  C   UNL     1      19.593  49.982   4.743  0.00  0.00    +0.001 A 
ATOM     15  C   UNL     1      20.127  48.802   5.260  0.00  0.00    +0.012 A 
ATOM     16  C   UNL     1      21.245  48.851   6.101  0.00  0.00    +0.033 A 
ATOM     17  C   UNL     1      21.804  47.596   6.644  0.00  0.00    +0.198 C 
ATOM     18  O   UNL     1      21.276  46.531   6.348  0.00  0.00    -0.286 OA
ATOM     19  O   UNL     1      23.510  51.224   7.589  0.00  0.00    -0.287 OA
ATOM     22  C   UNL     1      22.984  47.661   7.531  0.00  0.00    +0.076 A 
ENDROOT
BRANCH   3   1
ATOM      1  O   UNL     1      22.989  45.255   7.767  0.00  0.00    -0.494 OA
ATOM      2  C   UNL     1      23.685  44.456   6.814  0.00  0.00    +0.277 C 
ENDBRANCH   3   1
BRANCH   4   5
ATOM      5  C   UNL     1      25.204  45.303   9.439  0.00  0.00    +0.266 C 
ATOM      6  O   UNL     1      25.384  45.128  10.644  0.00  0.00    -0.295 OA
ENDBRANCH   4   5
BRANCH   7  20
ATOM     20  O   UNL     1      26.302  47.829  10.029  0.00  0.00    -0.506 OA
ATOM     21  H   UNL     1      26.151  48.515  10.702  0.00  0.00    +0.292 HD
ENDBRANCH   7  20
TORSDOF 3
ENDMDL
MODEL 3
REMARK VINA RESULT:    -6.650     15.025     16.718
REMARK INTER + INTRA:          -7.411
REMARK INTER:                  -7.490
REMARK INTRA:                   0.080
REMARK UNBOUND:                 0.211
REMARK  Name = C:\Users\HP\Downloads\Anthraquinone_pdb\AD21.pdb
REMARK  4 active torsions:
REMARK  status: ('A' for Active; 'I' for Inactive)
REMARK    1  A    between atoms: O_1  and  C_12
REMARK    2  A    between atoms: O_1  and  C_21
REMARK    3  A    between atoms: O_4  and  C_15
REMARK    4  A    between atoms: C_14  and  C_20
REMARK                            x       y       z     vdW  Elec       q    Type
REMARK                         _______ _______ _______ _____ _____    ______ ____
ROOT
ATOM      3  C   UNL     1      15.288  40.118  21.939  0.00  0.00    +0.145 A 
ATOM      4  C   UNL     1      15.560  40.855  20.787  0.00  0.00    +0.098 A 
ATOM      7  C   UNL     1      16.553  41.833  20.801  0.00  0.00    +0.131 A 
ATOM      8  C   UNL     1      17.278  42.077  21.967  0.00  0.00    +0.058 A 
ATOM      9  C   UNL     1      17.008  41.339  23.127  0.00  0.00    +0.040 A 
ATOM     10  C   UNL     1      17.779  41.605  24.357  0.00  0.00    +0.195 C 
ATOM     11  C   UNL     1      17.485  40.819  25.572  0.00  0.00    +0.033 A 
ATOM     12  C   UNL     1      18.211  41.061  26.746  0.00  0.00    +0.012 A 
ATOM     13  C   UNL     1      17.939  40.323  27.898  0.00  0.00    +0.001 A 
ATOM     14  C   UNL     1      16.947  39.344  27.883  0.00  0.00    +0.001 A 
ATOM     15  C   UNL     1      16.222  39.100  26.716  0.00  0.00    +0.012 A 
ATOM     16  C   UNL     1      16.491  39.839  25.559  0.00  0.00    +0.033 A 
ATOM     17  C   UNL     1      15.718  39.573  24.328  0.00  0.00    +0.198 C 
ATOM     18  O   UNL     1      14.853  38.707  24.343  0.00  0.00    -0.286 OA
ATOM     19  O   UNL     1      18.653  42.464  24.370  0.00  0.00    -0.287 OA
ATOM     22  C   UNL     1      16.013  40.360  23.112  0.00  0.00    +0.076 A 
ENDROOT
BRANCH   3   1
ATOM      1  O   UNL     1      14.307  39.169  21.880  0.00  0.00    -0.494 OA
ATOM      2  C   UNL     1      12.960  39.633  21.911  0.00  0.00    +0.277 C 
ENDBRANCH   3   1
BRANCH   4   5
ATOM      5  C   UNL     1      14.808  40.609  19.561  0.00  0.00    +0.266 C 
ATOM      6  O   UNL     1      14.343  41.514  18.867  0.00  0.00    -0.295 OA
ENDBRANCH   4   5
BRANCH   7  20
ATOM     20  O   UNL     1      16.833  42.564  19.684  0.00  0.00    -0.506 OA
ATOM     21  H   UNL     1      17.272  41.993  19.031  0.00  0.00    +0.292 HD
ENDBRANCH   7  20
TORSDOF 3
ENDMDL
MODEL 4
REMARK VINA RESULT:    -6.606      1.874      5.839
REMARK INTER + INTRA:          -7.361
REMARK INTER:                  -7.422
REMARK INTRA:                   0.061
REMARK UNBOUND:                 0.211
REMARK  Name = C:\Users\HP\Downloads\Anthraquinone_pdb\AD21.pdb
REMARK  4 active torsions:
REMARK  status: ('A' for Active; 'I' for Inactive)
REMARK    1  A    between atoms: O_1  and  C_12
REMARK    2  A    between atoms: O_1  and  C_21
REMARK    3  A    between atoms: O_4  and  C_15
REMARK    4  A    between atoms: C_14  and  C_20
REMARK                            x       y       z     vdW  Elec       q    Type
REMARK                         _______ _______ _______ _____ _____    ______ ____
ROOT
ATOM      3  C   UNL     1      19.415  58.653  29.627  0.00  0.00    +0.145 A 
ATOM      4  C   UNL     1      18.680  59.287  30.629  0.00  0.00    +0.098 A 
ATOM      7  C   UNL     1      17.366  58.897  30.885  0.00  0.00    +0.131 A 
ATOM      8  C   UNL     1      16.783  57.872  30.139  0.00  0.00    +0.058 A 
ATOM      9  C   UNL     1      17.518  57.234  29.132  0.00  0.00    +0.040 A 
ATOM     10  C   UNL     1      16.892  56.151  28.347  0.00  0.00    +0.195 C 
ATOM     11  C   UNL     1      17.678  55.486  27.289  0.00  0.00    +0.033 A 
ATOM     12  C   UNL     1      17.097  54.456  26.538  0.00  0.00    +0.012 A 
ATOM     13  C   UNL     1      17.833  53.823  25.536  0.00  0.00    +0.001 A 
ATOM     14  C   UNL     1      19.147  54.212  25.283  0.00  0.00    +0.001 A 
ATOM     15  C   UNL     1      19.730  55.237  26.028  0.00  0.00    +0.012 A 
ATOM     16  C   UNL     1      18.995  55.875  27.033  0.00  0.00    +0.033 A 
ATOM     17  C   UNL     1      19.620  56.959  27.818  0.00  0.00    +0.198 C 
ATOM     18  O   UNL     1      20.776  57.280  27.573  0.00  0.00    -0.286 OA
ATOM     19  O   UNL     1      15.738  55.808  28.572  0.00  0.00    -0.287 OA
ATOM     22  C   UNL     1      18.833  57.625  28.877  0.00  0.00    +0.076 A 
ENDROOT
BRANCH   3   1
ATOM      1  O   UNL     1      20.699  59.067  29.412  0.00  0.00    -0.494 OA
ATOM      2  C   UNL     1      20.872  60.269  28.666  0.00  0.00    +0.277 C 
ENDBRANCH   3   1
BRANCH   4   5
ATOM      5  C   UNL     1      19.279  60.360  31.415  0.00  0.00    +0.266 C 
ATOM      6  O   UNL     1      18.872  61.522  31.381  0.00  0.00    -0.295 OA
ENDBRANCH   4   5
BRANCH   7  20
ATOM     20  O   UNL     1      16.631  59.505  31.860  0.00  0.00    -0.506 OA
ATOM     21  H   UNL     1      16.545  58.901  32.617  0.00  0.00    +0.292 HD
ENDBRANCH   7  20
TORSDOF 3
ENDMDL
MODEL 5
REMARK VINA RESULT:    -6.572      3.367      5.537
REMARK INTER + INTRA:          -7.322
REMARK INTER:                  -7.413
REMARK INTRA:                   0.091
REMARK UNBOUND:                 0.211
REMARK  Name = C:\Users\HP\Downloads\Anthraquinone_pdb\AD21.pdb
REMARK  4 active torsions:
REMARK  status: ('A' for Active; 'I' for Inactive)
REMARK    1  A    between atoms: O_1  and  C_12
REMARK    2  A    between atoms: O_1  and  C_21
REMARK    3  A    between atoms: O_4  and  C_15
REMARK    4  A    between atoms: C_14  and  C_20
REMARK                            x       y       z     vdW  Elec       q    Type
REMARK                         _______ _______ _______ _____ _____    ______ ____
ROOT
ATOM      3  C   UNL     1      23.367  57.339  25.316  0.00  0.00    +0.145 A 
ATOM      4  C   UNL     1      23.430  57.982  24.080  0.00  0.00    +0.098 A 
ATOM      7  C   UNL     1      22.310  58.013  23.251  0.00  0.00    +0.131 A 
ATOM      8  C   UNL     1      21.124  57.402  23.655  0.00  0.00    +0.058 A 
ATOM      9  C   UNL     1      21.057  56.755  24.896  0.00  0.00    +0.040 A 
ATOM     10  C   UNL     1      19.797  56.109  25.314  0.00  0.00    +0.195 C 
ATOM     11  C   UNL     1      19.739  55.431  26.626  0.00  0.00    +0.033 A 
ATOM     12  C   UNL     1      18.549  54.816  27.036  0.00  0.00    +0.012 A 
ATOM     13  C   UNL     1      18.487  54.174  28.273  0.00  0.00    +0.001 A 
ATOM     14  C   UNL     1      19.607  54.145  29.102  0.00  0.00    +0.001 A 
ATOM     15  C   UNL     1      20.794  54.756  28.698  0.00  0.00    +0.012 A 
ATOM     16  C   UNL     1      20.861  55.401  27.457  0.00  0.00    +0.033 A 
ATOM     17  C   UNL     1      22.122  56.046  27.037  0.00  0.00    +0.198 C 
ATOM     18  O   UNL     1      23.090  56.005  27.786  0.00  0.00    -0.286 OA
ATOM     19  O   UNL     1      18.812  56.137  24.587  0.00  0.00    -0.287 OA
ATOM     22  C   UNL     1      22.179  56.724  25.725  0.00  0.00    +0.076 A 
ENDROOT
BRANCH   3   1
ATOM      1  O   UNL     1      24.488  57.334  26.097  0.00  0.00    -0.494 OA
ATOM      2  C   UNL     1      24.763  58.520  26.838  0.00  0.00    +0.277 C 
ENDBRANCH   3   1
BRANCH   4   5
ATOM      5  C   UNL     1      24.667  58.625  23.646  0.00  0.00    +0.266 C 
ATOM      6  O   UNL     1      25.311  58.246  22.668  0.00  0.00    -0.295 OA
ENDBRANCH   4   5
BRANCH   7  20
ATOM     20  O   UNL     1      22.353  58.636  22.039  0.00  0.00    -0.506 OA
ATOM     21  H   UNL     1      23.135  58.329  21.550  0.00  0.00    +0.292 HD
ENDBRANCH   7  20
TORSDOF 3
ENDMDL
MODEL 6
REMARK VINA RESULT:    -6.543      3.345      5.652
REMARK INTER + INTRA:          -7.288
REMARK INTER:                  -7.343
REMARK INTRA:                   0.055
REMARK UNBOUND:                 0.211
REMARK  Name = C:\Users\HP\Downloads\Anthraquinone_pdb\AD21.pdb
REMARK  4 active torsions:
REMARK  status: ('A' for Active; 'I' for Inactive)
REMARK    1  A    between atoms: O_1  and  C_12
REMARK    2  A    between atoms: O_1  and  C_21
REMARK    3  A    between atoms: O_4  and  C_15
REMARK    4  A    between atoms: C_14  and  C_20
REMARK                            x       y       z     vdW  Elec       q    Type
REMARK                         _______ _______ _______ _____ _____    ______ ____
ROOT
ATOM      3  C   UNL     1      19.013  55.086  26.799  0.00  0.00    +0.145 A 
ATOM      4  C   UNL     1      19.327  54.334  27.931  0.00  0.00    +0.098 A 
ATOM      7  C   UNL     1      20.654  54.209  28.341  0.00  0.00    +0.131 A 
ATOM      8  C   UNL     1      21.670  54.837  27.620  0.00  0.00    +0.058 A 
ATOM      9  C   UNL     1      21.358  55.592  26.483  0.00  0.00    +0.040 A 
ATOM     10  C   UNL     1      22.441  56.252  25.727  0.00  0.00    +0.195 C 
ATOM     11  C   UNL     1      22.099  57.047  24.530  0.00  0.00    +0.033 A 
ATOM     12  C   UNL     1      23.117  57.679  23.804  0.00  0.00    +0.012 A 
ATOM     13  C   UNL     1      22.801  58.431  22.672  0.00  0.00    +0.001 A 
ATOM     14  C   UNL     1      21.475  58.557  22.264  0.00  0.00    +0.001 A 
ATOM     15  C   UNL     1      20.458  57.930  22.984  0.00  0.00    +0.012 A 
ATOM     16  C   UNL     1      20.770  57.173  24.120  0.00  0.00    +0.033 A 
ATOM     17  C   UNL     1      19.687  56.512  24.876  0.00  0.00    +0.198 C 
ATOM     18  O   UNL     1      18.531  56.640  24.495  0.00  0.00    -0.286 OA
ATOM     19  O   UNL     1      23.607  56.143  26.087  0.00  0.00    -0.287 OA
ATOM     22  C   UNL     1      20.030  55.717  26.073  0.00  0.00    +0.076 A 
ENDROOT
BRANCH   3   1
ATOM      1  O   UNL     1      17.700  55.182  26.434  0.00  0.00    -0.494 OA
ATOM      2  C   UNL     1      17.139  54.066  25.749  0.00  0.00    +0.277 C 
ENDBRANCH   3   1
BRANCH   4   5
ATOM      5  C   UNL     1      18.272  53.673  28.692  0.00  0.00    +0.266 C 
ATOM      6  O   UNL     1      18.221  52.452  28.845  0.00  0.00    -0.295 OA
ENDBRANCH   4   5
BRANCH   7  20
ATOM     20  O   UNL     1      20.981  53.477  29.444  0.00  0.00    -0.506 OA
ATOM     21  H   UNL     1      21.880  53.123  29.337  0.00  0.00    +0.292 HD
ENDBRANCH   7  20
TORSDOF 3
ENDMDL
MODEL 7
REMARK VINA RESULT:    -6.516     21.287     23.613
REMARK INTER + INTRA:          -7.257
REMARK INTER:                  -7.364
REMARK INTRA:                   0.107
REMARK UNBOUND:                 0.211
REMARK  Name = C:\Users\HP\Downloads\Anthraquinone_pdb\AD21.pdb
REMARK  4 active torsions:
REMARK  status: ('A' for Active; 'I' for Inactive)
REMARK    1  A    between atoms: O_1  and  C_12
REMARK    2  A    between atoms: O_1  and  C_21
REMARK    3  A    between atoms: O_4  and  C_15
REMARK    4  A    between atoms: C_14  and  C_20
REMARK                            x       y       z     vdW  Elec       q    Type
REMARK                         _______ _______ _______ _____ _____    ______ ____
ROOT
ATOM      3  C   UNL     1       8.131  52.223   6.643  0.00  0.00    +0.145 A 
ATOM      4  C   UNL     1       7.197  52.865   5.830  0.00  0.00    +0.098 A 
ATOM      7  C   UNL     1       5.847  52.531   5.919  0.00  0.00    +0.131 A 
ATOM      8  C   UNL     1       5.426  51.552   6.819  0.00  0.00    +0.058 A 
ATOM      9  C   UNL     1       6.361  50.904   7.636  0.00  0.00    +0.040 A 
ATOM     10  C   UNL     1       5.907  49.868   8.585  0.00  0.00    +0.195 C 
ATOM     11  C   UNL     1       6.903  49.193   9.442  0.00  0.00    +0.033 A 
ATOM     12  C   UNL     1       6.485  48.210  10.347  0.00  0.00    +0.012 A 
ATOM     13  C   UNL     1       7.421  47.568  11.159  0.00  0.00    +0.001 A 
ATOM     14  C   UNL     1       8.770  47.905  11.072  0.00  0.00    +0.001 A 
ATOM     15  C   UNL     1       9.191  48.884  10.171  0.00  0.00    +0.012 A 
ATOM     16  C   UNL     1       8.256  49.529   9.354  0.00  0.00    +0.033 A 
ATOM     17  C   UNL     1       8.711  50.565   8.404  0.00  0.00    +0.198 C 
ATOM     18  O   UNL     1       9.902  50.841   8.348  0.00  0.00    -0.286 OA
ATOM     19  O   UNL     1       4.720  49.574   8.664  0.00  0.00    -0.287 OA
ATOM     22  C   UNL     1       7.713  51.240   7.547  0.00  0.00    +0.076 A 
ENDROOT
BRANCH   3   1
ATOM      1  O   UNL     1       9.443  52.583   6.524  0.00  0.00    -0.494 OA
ATOM      2  C   UNL     1      10.161  52.044   5.417  0.00  0.00    +0.277 C 
ENDBRANCH   3   1
BRANCH   4   5
ATOM      5  C   UNL     1       7.625  53.891   4.885  0.00  0.00    +0.266 C 
ATOM      6  O   UNL     1       7.006  54.941   4.710  0.00  0.00    -0.295 OA
ENDBRANCH   4   5
BRANCH   7  20
ATOM     20  O   UNL     1       4.919  53.148   5.133  0.00  0.00    -0.506 OA
ATOM     21  H   UNL     1       5.369  53.582   4.389  0.00  0.00    +0.292 HD
ENDBRANCH   7  20
TORSDOF 3
ENDMDL
MODEL 8
REMARK VINA RESULT:    -6.514      1.939      4.139
REMARK INTER + INTRA:          -7.254
REMARK INTER:                  -7.389
REMARK INTRA:                   0.135
REMARK UNBOUND:                 0.211
REMARK  Name = C:\Users\HP\Downloads\Anthraquinone_pdb\AD21.pdb
REMARK  4 active torsions:
REMARK  status: ('A' for Active; 'I' for Inactive)
REMARK    1  A    between atoms: O_1  and  C_12
REMARK    2  A    between atoms: O_1  and  C_21
REMARK    3  A    between atoms: O_4  and  C_15
REMARK    4  A    between atoms: C_14  and  C_20
REMARK                            x       y       z     vdW  Elec       q    Type
REMARK                         _______ _______ _______ _____ _____    ______ ____
ROOT
ATOM      3  C   UNL     1      18.184  55.176  27.472  0.00  0.00    +0.145 A 
ATOM      4  C   UNL     1      17.682  54.262  26.546  0.00  0.00    +0.098 A 
ATOM      7  C   UNL     1      18.406  53.969  25.391  0.00  0.00    +0.131 A 
ATOM      8  C   UNL     1      19.634  54.589  25.159  0.00  0.00    +0.058 A 
ATOM      9  C   UNL     1      20.141  55.508  26.087  0.00  0.00    +0.040 A 
ATOM     10  C   UNL     1      21.441  56.160  25.833  0.00  0.00    +0.195 C 
ATOM     11  C   UNL     1      21.964  57.126  26.820  0.00  0.00    +0.033 A 
ATOM     12  C   UNL     1      23.197  57.750  26.591  0.00  0.00    +0.012 A 
ATOM     13  C   UNL     1      23.698  58.664  27.519  0.00  0.00    +0.001 A 
ATOM     14  C   UNL     1      22.974  58.956  28.674  0.00  0.00    +0.001 A 
ATOM     15  C   UNL     1      21.746  58.336  28.905  0.00  0.00    +0.012 A 
ATOM     16  C   UNL     1      21.240  57.419  27.977  0.00  0.00    +0.033 A 
ATOM     17  C   UNL     1      19.939  56.767  28.231  0.00  0.00    +0.198 C 
ATOM     18  O   UNL     1      19.325  57.042  29.254  0.00  0.00    -0.286 OA
ATOM     19  O   UNL     1      22.078  55.902  24.819  0.00  0.00    -0.287 OA
ATOM     22  C   UNL     1      19.415  55.801  27.243  0.00  0.00    +0.076 A 
ENDROOT
BRANCH   3   1
ATOM      1  O   UNL     1      17.442  55.433  28.590  0.00  0.00    -0.494 OA
ATOM      2  C   UNL     1      16.336  56.319  28.440  0.00  0.00    +0.277 C 
ENDBRANCH   3   1
BRANCH   4   5
ATOM      5  C   UNL     1      16.399  53.608  26.778  0.00  0.00    +0.266 C 
ATOM      6  O   UNL     1      16.167  52.449  26.432  0.00  0.00    -0.295 OA
ENDBRANCH   4   5
BRANCH   7  20
ATOM     20  O   UNL     1      17.932  53.079  24.474  0.00  0.00    -0.506 OA
ATOM     21  H   UNL     1      17.065  53.382  24.155  0.00  0.00    +0.292 HD
ENDBRANCH   7  20
TORSDOF 3
ENDMDL
MODEL 9
REMARK VINA RESULT:    -6.324      5.021      6.808
REMARK INTER + INTRA:          -7.038
REMARK INTER:                  -7.097
REMARK INTRA:                   0.059
REMARK UNBOUND:                 0.211
REMARK  Name = C:\Users\HP\Downloads\Anthraquinone_pdb\AD21.pdb
REMARK  4 active torsions:
REMARK  status: ('A' for Active; 'I' for Inactive)
REMARK    1  A    between atoms: O_1  and  C_12
REMARK    2  A    between atoms: O_1  and  C_21
REMARK    3  A    between atoms: O_4  and  C_15
REMARK    4  A    between atoms: C_14  and  C_20
REMARK                            x       y       z     vdW  Elec       q    Type
REMARK                         _______ _______ _______ _____ _____    ______ ____
ROOT
ATOM      3  C   UNL     1      20.996  60.759  29.018  0.00  0.00    +0.145 A 
ATOM      4  C   UNL     1      21.420  61.454  27.885  0.00  0.00    +0.098 A 
ATOM      7  C   UNL     1      20.813  62.659  27.537  0.00  0.00    +0.131 A 
ATOM      8  C   UNL     1      19.780  63.174  28.321  0.00  0.00    +0.058 A 
ATOM      9  C   UNL     1      19.351  62.478  29.458  0.00  0.00    +0.040 A 
ATOM     10  C   UNL     1      18.256  63.030  30.281  0.00  0.00    +0.195 C 
ATOM     11  C   UNL     1      17.814  62.288  31.479  0.00  0.00    +0.033 A 
ATOM     12  C   UNL     1      16.777  62.801  32.268  0.00  0.00    +0.012 A 
ATOM     13  C   UNL     1      16.354  62.105  33.401  0.00  0.00    +0.001 A 
ATOM     14  C   UNL     1      16.962  60.900  33.749  0.00  0.00    +0.001 A 
ATOM     15  C   UNL     1      17.996  60.386  32.966  0.00  0.00    +0.012 A 
ATOM     16  C   UNL     1      18.423  61.080  31.828  0.00  0.00    +0.033 A 
ATOM     17  C   UNL     1      19.517  60.528  31.004  0.00  0.00    +0.198 C 
ATOM     18  O   UNL     1      20.034  59.468  31.334  0.00  0.00    -0.286 OA
ATOM     19  O   UNL     1      17.723  64.091  29.976  0.00  0.00    -0.287 OA
ATOM     22  C   UNL     1      19.959  61.271  29.806  0.00  0.00    +0.076 A 
ENDROOT
BRANCH   3   1
ATOM      1  O   UNL     1      21.619  59.582  29.322  0.00  0.00    -0.494 OA
ATOM      2  C   UNL     1      21.233  58.435  28.568  0.00  0.00    +0.277 C 
ENDBRANCH   3   1
BRANCH   4   5
ATOM      5  C   UNL     1      22.500  60.925  27.058  0.00  0.00    +0.266 C 
ATOM      6  O   UNL     1      22.352  60.637  25.870  0.00  0.00    -0.295 OA
ENDBRANCH   4   5
BRANCH   7  20
ATOM     20  O   UNL     1      21.213  63.353  26.434  0.00  0.00    -0.506 OA
ATOM     21  H   UNL     1      21.333  62.733  25.694  0.00  0.00    +0.292 HD
ENDBRANCH   7  20
TORSDOF 3
ENDMDL
