MODEL 1
REMARK VINA RESULT:    -7.123      0.000      0.000
REMARK INTER + INTRA:          -7.343
REMARK INTER:                  -7.748
REMARK INTRA:                   0.405
REMARK UNBOUND:                 0.405
REMARK  Name = C:\Users\HP\Downloads\Anthraquinone_pdb\AD22.pdb
REMARK  4 active torsions:
REMARK  status: ('A' for Active; 'I' for Inactive)
REMARK    1  A    between atoms: O_1  and  C_8
REMARK    2  A    between atoms: O_1  and  C_20
REMARK    3  A    between atoms: O_2  and  C_14
REMARK    4  A    between atoms: C_12  and  C_17
REMARK                            x       y       z     vdW  Elec       q    Type
REMARK                         _______ _______ _______ _____ _____    ______ ____
ROOT
ATOM      3  C   UNL     1      22.977  56.079  24.573  0.00  0.00    +0.138 A 
ATOM      4  C   UNL     1      22.909  56.934  23.473  0.00  0.00    +0.033 A 
ATOM      5  C   UNL     1      24.152  57.300  22.726  0.00  0.00    +0.051 C 
ATOM      6  C   UNL     1      21.682  57.452  23.065  0.00  0.00    +0.124 A 
ATOM      7  C   UNL     1      20.516  57.116  23.755  0.00  0.00    +0.058 A 
ATOM      8  C   UNL     1      20.579  56.258  24.858  0.00  0.00    +0.040 A 
ATOM      9  C   UNL     1      19.340  55.907  25.583  0.00  0.00    +0.195 C 
ATOM     10  C   UNL     1      19.422  55.001  26.747  0.00  0.00    +0.033 A 
ATOM     11  C   UNL     1      18.256  54.662  27.443  0.00  0.00    +0.012 A 
ATOM     12  C   UNL     1      18.323  53.807  28.543  0.00  0.00    +0.001 A 
ATOM     13  C   UNL     1      19.551  53.290  28.952  0.00  0.00    +0.001 A 
ATOM     14  C   UNL     1      20.716  53.626  28.262  0.00  0.00    +0.012 A 
ATOM     15  C   UNL     1      20.652  54.483  27.156  0.00  0.00    +0.033 A 
ATOM     16  C   UNL     1      21.891  54.833  26.432  0.00  0.00    +0.198 C 
ATOM     17  O   UNL     1      22.956  54.365  26.814  0.00  0.00    -0.286 OA
ATOM     18  O   UNL     1      18.261  56.362  25.225  0.00  0.00    -0.287 OA
ATOM     21  C   UNL     1      21.810  55.739  25.268  0.00  0.00    +0.075 A 
ENDROOT
BRANCH   3   1
ATOM      1  O   UNL     1      24.201  55.596  24.935  0.00  0.00    -0.494 OA
ATOM      2  C   UNL     1      24.793  54.626  24.076  0.00  0.00    +0.277 C 
ENDBRANCH   3   1
BRANCH   6  19
ATOM     19  O   UNL     1      21.599  58.290  21.993  0.00  0.00    -0.506 OA
ATOM     20  H   UNL     1      20.674  58.337  21.695  0.00  0.00    +0.292 HD
ENDBRANCH   6  19
TORSDOF 2
ENDMDL
MODEL 2
REMARK VINA RESULT:    -6.588      1.547      6.143
REMARK INTER + INTRA:          -6.760
REMARK INTER:                  -7.127
REMARK INTRA:                   0.366
REMARK UNBOUND:                 0.405
REMARK  Name = C:\Users\HP\Downloads\Anthraquinone_pdb\AD22.pdb
REMARK  4 active torsions:
REMARK  status: ('A' for Active; 'I' for Inactive)
REMARK    1  A    between atoms: O_1  and  C_8
REMARK    2  A    between atoms: O_1  and  C_20
REMARK    3  A    between atoms: O_2  and  C_14
REMARK    4  A    between atoms: C_12  and  C_17
REMARK                            x       y       z     vdW  Elec       q    Type
REMARK                         _______ _______ _______ _____ _____    ______ ____
ROOT
ATOM      3  C   UNL     1      18.994  54.911  26.767  0.00  0.00    +0.138 A 
ATOM      4  C   UNL     1      19.326  54.089  27.844  0.00  0.00    +0.033 A 
ATOM      5  C   UNL     1      18.253  53.409  28.631  0.00  0.00    +0.051 C 
ATOM      6  C   UNL     1      20.662  53.899  28.191  0.00  0.00    +0.124 A 
ATOM      7  C   UNL     1      21.672  54.529  27.462  0.00  0.00    +0.058 A 
ATOM      8  C   UNL     1      21.343  55.354  26.381  0.00  0.00    +0.040 A 
ATOM      9  C   UNL     1      22.418  56.017  25.615  0.00  0.00    +0.195 C 
ATOM     10  C   UNL     1      22.056  56.887  24.476  0.00  0.00    +0.033 A 
ATOM     11  C   UNL     1      23.065  57.522  23.743  0.00  0.00    +0.012 A 
ATOM     12  C   UNL     1      22.732  58.344  22.667  0.00  0.00    +0.001 A 
ATOM     13  C   UNL     1      21.397  58.536  22.320  0.00  0.00    +0.001 A 
ATOM     14  C   UNL     1      20.388  57.905  23.048  0.00  0.00    +0.012 A 
ATOM     15  C   UNL     1      20.717  57.078  24.130  0.00  0.00    +0.033 A 
ATOM     16  C   UNL     1      19.643  56.415  24.895  0.00  0.00    +0.198 C 
ATOM     17  O   UNL     1      18.477  56.602  24.569  0.00  0.00    -0.286 OA
ATOM     18  O   UNL     1      23.592  55.850  25.919  0.00  0.00    -0.287 OA
ATOM     21  C   UNL     1      20.003  55.546  26.033  0.00  0.00    +0.075 A 
ENDROOT
BRANCH   3   1
ATOM      1  O   UNL     1      17.672  55.068  26.464  0.00  0.00    -0.494 OA
ATOM      2  C   UNL     1      17.045  54.009  25.746  0.00  0.00    +0.277 C 
ENDBRANCH   3   1
BRANCH   6  19
ATOM     19  O   UNL     1      21.004  53.100  29.241  0.00  0.00    -0.506 OA
ATOM     20  H   UNL     1      20.325  53.174  29.933  0.00  0.00    +0.292 HD
ENDBRANCH   6  19
TORSDOF 2
ENDMDL
MODEL 3
REMARK VINA RESULT:    -6.456     21.643     22.976
REMARK INTER + INTRA:          -6.617
REMARK INTER:                  -6.983
REMARK INTRA:                   0.366
REMARK UNBOUND:                 0.405
REMARK  Name = C:\Users\HP\Downloads\Anthraquinone_pdb\AD22.pdb
REMARK  4 active torsions:
REMARK  status: ('A' for Active; 'I' for Inactive)
REMARK    1  A    between atoms: O_1  and  C_8
REMARK    2  A    between atoms: O_1  and  C_20
REMARK    3  A    between atoms: O_2  and  C_14
REMARK    4  A    between atoms: C_12  and  C_17
REMARK                            x       y       z     vdW  Elec       q    Type
REMARK                         _______ _______ _______ _____ _____    ______ ____
ROOT
ATOM      3  C   UNL     1       8.040  52.240   6.704  0.00  0.00    +0.138 A 
ATOM      4  C   UNL     1       7.088  52.867   5.901  0.00  0.00    +0.033 A 
ATOM      5  C   UNL     1       7.498  53.945   4.949  0.00  0.00    +0.051 C 
ATOM      6  C   UNL     1       5.749  52.491   5.982  0.00  0.00    +0.124 A 
ATOM      7  C   UNL     1       5.356  51.486   6.868  0.00  0.00    +0.058 A 
ATOM      8  C   UNL     1       6.309  50.854   7.675  0.00  0.00    +0.040 A 
ATOM      9  C   UNL     1       5.884  49.791   8.609  0.00  0.00    +0.195 C 
ATOM     10  C   UNL     1       6.900  49.133   9.457  0.00  0.00    +0.033 A 
ATOM     11  C   UNL     1       6.511  48.126  10.346  0.00  0.00    +0.012 A 
ATOM     12  C   UNL     1       7.464  47.499  11.150  0.00  0.00    +0.001 A 
ATOM     13  C   UNL     1       8.803  47.875  11.070  0.00  0.00    +0.001 A 
ATOM     14  C   UNL     1       9.195  48.880  10.185  0.00  0.00    +0.012 A 
ATOM     15  C   UNL     1       8.242  49.511   9.375  0.00  0.00    +0.033 A 
ATOM     16  C   UNL     1       8.666  50.573   8.441  0.00  0.00    +0.198 C 
ATOM     17  O   UNL     1       9.850  50.885   8.392  0.00  0.00    -0.286 OA
ATOM     18  O   UNL     1       4.708  49.461   8.681  0.00  0.00    -0.287 OA
ATOM     21  C   UNL     1       7.651  51.232   7.594  0.00  0.00    +0.075 A 
ENDROOT
BRANCH   3   1
ATOM      1  O   UNL     1       9.340  52.642   6.590  0.00  0.00    -0.494 OA
ATOM      2  C   UNL     1      10.074  52.141   5.476  0.00  0.00    +0.277 C 
ENDBRANCH   3   1
BRANCH   6  19
ATOM     19  O   UNL     1       4.805  53.095   5.205  0.00  0.00    -0.506 OA
ATOM     20  H   UNL     1       5.202  53.336   4.351  0.00  0.00    +0.292 HD
ENDBRANCH   6  19
TORSDOF 2
ENDMDL
MODEL 4
REMARK VINA RESULT:    -6.448      3.786      5.771
REMARK INTER + INTRA:          -6.608
REMARK INTER:                  -6.994
REMARK INTRA:                   0.386
REMARK UNBOUND:                 0.405
REMARK  Name = C:\Users\HP\Downloads\Anthraquinone_pdb\AD22.pdb
REMARK  4 active torsions:
REMARK  status: ('A' for Active; 'I' for Inactive)
REMARK    1  A    between atoms: O_1  and  C_8
REMARK    2  A    between atoms: O_1  and  C_20
REMARK    3  A    between atoms: O_2  and  C_14
REMARK    4  A    between atoms: C_12  and  C_17
REMARK                            x       y       z     vdW  Elec       q    Type
REMARK                         _______ _______ _______ _____ _____    ______ ____
ROOT
ATOM      3  C   UNL     1      18.386  55.560  26.949  0.00  0.00    +0.138 A 
ATOM      4  C   UNL     1      19.431  55.041  26.185  0.00  0.00    +0.033 A 
ATOM      5  C   UNL     1      19.156  54.023  25.125  0.00  0.00    +0.051 C 
ATOM      6  C   UNL     1      20.738  55.469  26.407  0.00  0.00    +0.124 A 
ATOM      7  C   UNL     1      21.006  56.419  27.394  0.00  0.00    +0.058 A 
ATOM      8  C   UNL     1      19.960  56.943  28.162  0.00  0.00    +0.040 A 
ATOM      9  C   UNL     1      20.253  57.949  29.204  0.00  0.00    +0.195 C 
ATOM     10  C   UNL     1      19.139  58.492  30.009  0.00  0.00    +0.033 A 
ATOM     11  C   UNL     1      19.403  59.444  31.000  0.00  0.00    +0.012 A 
ATOM     12  C   UNL     1      18.357  59.963  31.765  0.00  0.00    +0.001 A 
ATOM     13  C   UNL     1      17.050  59.534  31.544  0.00  0.00    +0.001 A 
ATOM     14  C   UNL     1      16.783  58.584  30.558  0.00  0.00    +0.012 A 
ATOM     15  C   UNL     1      17.830  58.062  29.787  0.00  0.00    +0.033 A 
ATOM     16  C   UNL     1      17.537  57.057  28.745  0.00  0.00    +0.198 C 
ATOM     17  O   UNL     1      16.379  56.697  28.573  0.00  0.00    -0.286 OA
ATOM     18  O   UNL     1      21.401  58.325  29.400  0.00  0.00    -0.287 OA
ATOM     21  C   UNL     1      18.649  56.513  27.941  0.00  0.00    +0.075 A 
ENDROOT
BRANCH   3   1
ATOM      1  O   UNL     1      17.122  55.110  26.696  0.00  0.00    -0.494 OA
ATOM      2  C   UNL     1      16.805  53.793  27.138  0.00  0.00    +0.277 C 
ENDBRANCH   3   1
BRANCH   6  19
ATOM     19  O   UNL     1      21.771  54.971  25.670  0.00  0.00    -0.506 OA
ATOM     20  H   UNL     1      22.117  55.671  25.090  0.00  0.00    +0.292 HD
ENDBRANCH   6  19
TORSDOF 2
ENDMDL
MODEL 5
REMARK VINA RESULT:    -6.429     25.916     27.990
REMARK INTER + INTRA:          -6.587
REMARK INTER:                  -6.953
REMARK INTRA:                   0.366
REMARK UNBOUND:                 0.405
REMARK  Name = C:\Users\HP\Downloads\Anthraquinone_pdb\AD22.pdb
REMARK  4 active torsions:
REMARK  status: ('A' for Active; 'I' for Inactive)
REMARK    1  A    between atoms: O_1  and  C_8
REMARK    2  A    between atoms: O_1  and  C_20
REMARK    3  A    between atoms: O_2  and  C_14
REMARK    4  A    between atoms: C_12  and  C_17
REMARK                            x       y       z     vdW  Elec       q    Type
REMARK                         _______ _______ _______ _____ _____    ______ ____
ROOT
ATOM      3  C   UNL     1      19.654  72.314   2.614  0.00  0.00    +0.138 A 
ATOM      4  C   UNL     1      20.227  72.675   3.834  0.00  0.00    +0.033 A 
ATOM      5  C   UNL     1      21.308  73.707   3.882  0.00  0.00    +0.051 C 
ATOM      6  C   UNL     1      19.792  72.075   5.014  0.00  0.00    +0.124 A 
ATOM      7  C   UNL     1      18.783  71.112   4.979  0.00  0.00    +0.058 A 
ATOM      8  C   UNL     1      18.206  70.747   3.758  0.00  0.00    +0.040 A 
ATOM      9  C   UNL     1      17.138  69.727   3.730  0.00  0.00    +0.195 C 
ATOM     10  C   UNL     1      16.538  69.350   2.434  0.00  0.00    +0.033 A 
ATOM     11  C   UNL     1      15.527  68.384   2.394  0.00  0.00    +0.012 A 
ATOM     12  C   UNL     1      14.955  68.023   1.174  0.00  0.00    +0.001 A 
ATOM     13  C   UNL     1      15.389  68.621  -0.006  0.00  0.00    +0.001 A 
ATOM     14  C   UNL     1      16.398  69.585   0.028  0.00  0.00    +0.012 A 
ATOM     15  C   UNL     1      16.975  69.951   1.251  0.00  0.00    +0.033 A 
ATOM     16  C   UNL     1      18.041  70.972   1.278  0.00  0.00    +0.198 C 
ATOM     17  O   UNL     1      18.405  71.481   0.225  0.00  0.00    -0.286 OA
ATOM     18  O   UNL     1      16.756  69.199   4.767  0.00  0.00    -0.287 OA
ATOM     21  C   UNL     1      18.642  71.348   2.574  0.00  0.00    +0.075 A 
ENDROOT
BRANCH   3   1
ATOM      1  O   UNL     1      20.111  72.929   1.484  0.00  0.00    -0.494 OA
ATOM      2  C   UNL     1      19.628  74.244   1.224  0.00  0.00    +0.277 C 
ENDBRANCH   3   1
BRANCH   6  19
ATOM     19  O   UNL     1      20.342  72.416   6.214  0.00  0.00    -0.506 OA
ATOM     20  H   UNL     1      21.136  71.876   6.366  0.00  0.00    +0.292 HD
ENDBRANCH   6  19
TORSDOF 2
ENDMDL
MODEL 6
REMARK VINA RESULT:    -6.416     18.527     20.204
REMARK INTER + INTRA:          -6.573
REMARK INTER:                  -6.939
REMARK INTRA:                   0.366
REMARK UNBOUND:                 0.405
REMARK  Name = C:\Users\HP\Downloads\Anthraquinone_pdb\AD22.pdb
REMARK  4 active torsions:
REMARK  status: ('A' for Active; 'I' for Inactive)
REMARK    1  A    between atoms: O_1  and  C_8
REMARK    2  A    between atoms: O_1  and  C_20
REMARK    3  A    between atoms: O_2  and  C_14
REMARK    4  A    between atoms: C_12  and  C_17
REMARK                            x       y       z     vdW  Elec       q    Type
REMARK                         _______ _______ _______ _____ _____    ______ ____
ROOT
ATOM      3  C   UNL     1      23.598  46.512   8.176  0.00  0.00    +0.138 A 
ATOM      4  C   UNL     1      24.720  46.558   9.003  0.00  0.00    +0.033 A 
ATOM      5  C   UNL     1      25.275  45.300   9.590  0.00  0.00    +0.051 C 
ATOM      6  C   UNL     1      25.329  47.779   9.287  0.00  0.00    +0.124 A 
ATOM      7  C   UNL     1      24.818  48.959   8.744  0.00  0.00    +0.058 A 
ATOM      8  C   UNL     1      23.693  48.917   7.913  0.00  0.00    +0.040 A 
ATOM      9  C   UNL     1      23.159  50.171   7.342  0.00  0.00    +0.195 C 
ATOM     10  C   UNL     1      21.969  50.112   6.468  0.00  0.00    +0.033 A 
ATOM     11  C   UNL     1      21.453  51.292   5.922  0.00  0.00    +0.012 A 
ATOM     12  C   UNL     1      20.331  51.246   5.095  0.00  0.00    +0.001 A 
ATOM     13  C   UNL     1      19.721  50.026   4.812  0.00  0.00    +0.001 A 
ATOM     14  C   UNL     1      20.232  48.846   5.355  0.00  0.00    +0.012 A 
ATOM     15  C   UNL     1      21.359  48.888   6.185  0.00  0.00    +0.033 A 
ATOM     16  C   UNL     1      21.893  47.634   6.754  0.00  0.00    +0.198 C 
ATOM     17  O   UNL     1      21.337  46.576   6.490  0.00  0.00    -0.286 OA
ATOM     18  O   UNL     1      23.693  51.243   7.592  0.00  0.00    -0.287 OA
ATOM     21  C   UNL     1      23.081  47.693   7.629  0.00  0.00    +0.075 A 
ENDROOT
BRANCH   3   1
ATOM      1  O   UNL     1      23.035  45.293   7.926  0.00  0.00    -0.494 OA
ATOM      2  C   UNL     1      23.686  44.467   6.964  0.00  0.00    +0.277 C 
ENDBRANCH   3   1
BRANCH   6  19
ATOM     19  O   UNL     1      26.425  47.841  10.094  0.00  0.00    -0.506 OA
ATOM     20  H   UNL     1      26.400  48.669  10.604  0.00  0.00    +0.292 HD
ENDBRANCH   6  19
TORSDOF 2
ENDMDL
MODEL 7
REMARK VINA RESULT:    -6.378     14.705     16.280
REMARK INTER + INTRA:          -6.532
REMARK INTER:                  -6.903
REMARK INTRA:                   0.371
REMARK UNBOUND:                 0.405
REMARK  Name = C:\Users\HP\Downloads\Anthraquinone_pdb\AD22.pdb
REMARK  4 active torsions:
REMARK  status: ('A' for Active; 'I' for Inactive)
REMARK    1  A    between atoms: O_1  and  C_8
REMARK    2  A    between atoms: O_1  and  C_20
REMARK    3  A    between atoms: O_2  and  C_14
REMARK    4  A    between atoms: C_12  and  C_17
REMARK                            x       y       z     vdW  Elec       q    Type
REMARK                         _______ _______ _______ _____ _____    ______ ____
ROOT
ATOM      3  C   UNL     1      15.243  40.133  21.960  0.00  0.00    +0.138 A 
ATOM      4  C   UNL     1      15.522  40.840  20.790  0.00  0.00    +0.033 A 
ATOM      5  C   UNL     1      14.732  40.581  19.548  0.00  0.00    +0.051 C 
ATOM      6  C   UNL     1      16.540  41.792  20.775  0.00  0.00    +0.124 A 
ATOM      7  C   UNL     1      17.283  42.041  21.929  0.00  0.00    +0.058 A 
ATOM      8  C   UNL     1      17.006  41.335  23.105  0.00  0.00    +0.040 A 
ATOM      9  C   UNL     1      17.797  41.605  24.323  0.00  0.00    +0.195 C 
ATOM     10  C   UNL     1      17.496  40.851  25.557  0.00  0.00    +0.033 A 
ATOM     11  C   UNL     1      18.239  41.097  26.717  0.00  0.00    +0.012 A 
ATOM     12  C   UNL     1      17.960  40.390  27.887  0.00  0.00    +0.001 A 
ATOM     13  C   UNL     1      16.944  39.438  27.903  0.00  0.00    +0.001 A 
ATOM     14  C   UNL     1      16.201  39.189  26.748  0.00  0.00    +0.012 A 
ATOM     15  C   UNL     1      16.476  39.897  25.572  0.00  0.00    +0.033 A 
ATOM     16  C   UNL     1      15.685  39.627  24.355  0.00  0.00    +0.198 C 
ATOM     17  O   UNL     1      14.797  38.784  24.397  0.00  0.00    -0.286 OA
ATOM     18  O   UNL     1      18.692  42.441  24.310  0.00  0.00    -0.287 OA
ATOM     21  C   UNL     1      15.986  40.380  23.121  0.00  0.00    +0.075 A 
ENDROOT
BRANCH   3   1
ATOM      1  O   UNL     1      14.237  39.211  21.928  0.00  0.00    -0.494 OA
ATOM      2  C   UNL     1      12.903  39.708  21.988  0.00  0.00    +0.277 C 
ENDBRANCH   3   1
BRANCH   6  19
ATOM     19  O   UNL     1      16.825  42.490  19.639  0.00  0.00    -0.506 OA
ATOM     20  H   UNL     1      16.679  41.918  18.867  0.00  0.00    +0.292 HD
ENDBRANCH   6  19
TORSDOF 2
ENDMDL
MODEL 8
REMARK VINA RESULT:    -6.272     16.203     17.911
REMARK INTER + INTRA:          -6.417
REMARK INTER:                  -6.783
REMARK INTRA:                   0.366
REMARK UNBOUND:                 0.405
REMARK  Name = C:\Users\HP\Downloads\Anthraquinone_pdb\AD22.pdb
REMARK  4 active torsions:
REMARK  status: ('A' for Active; 'I' for Inactive)
REMARK    1  A    between atoms: O_1  and  C_8
REMARK    2  A    between atoms: O_1  and  C_20
REMARK    3  A    between atoms: O_2  and  C_14
REMARK    4  A    between atoms: C_12  and  C_17
REMARK                            x       y       z     vdW  Elec       q    Type
REMARK                         _______ _______ _______ _____ _____    ______ ____
ROOT
ATOM      3  C   UNL     1      14.759  38.476  21.865  0.00  0.00    +0.138 A 
ATOM      4  C   UNL     1      15.171  38.132  23.153  0.00  0.00    +0.033 A 
ATOM      5  C   UNL     1      14.743  36.834  23.759  0.00  0.00    +0.051 C 
ATOM      6  C   UNL     1      15.982  38.999  23.881  0.00  0.00    +0.124 A 
ATOM      7  C   UNL     1      16.387  40.213  23.324  0.00  0.00    +0.058 A 
ATOM      8  C   UNL     1      15.977  40.561  22.032  0.00  0.00    +0.040 A 
ATOM      9  C   UNL     1      16.411  41.848  21.450  0.00  0.00    +0.195 C 
ATOM     10  C   UNL     1      15.969  42.204  20.086  0.00  0.00    +0.033 A 
ATOM     11  C   UNL     1      16.371  43.420  19.524  0.00  0.00    +0.012 A 
ATOM     12  C   UNL     1      15.960  43.763  18.236  0.00  0.00    +0.001 A 
ATOM     13  C   UNL     1      15.147  42.898  17.508  0.00  0.00    +0.001 A 
ATOM     14  C   UNL     1      14.743  41.683  18.065  0.00  0.00    +0.012 A 
ATOM     15  C   UNL     1      15.155  41.335  19.357  0.00  0.00    +0.033 A 
ATOM     16  C   UNL     1      14.722  40.048  19.938  0.00  0.00    +0.198 C 
ATOM     17  O   UNL     1      14.007  39.306  19.276  0.00  0.00    -0.286 OA
ATOM     18  O   UNL     1      17.124  42.611  22.090  0.00  0.00    -0.287 OA
ATOM     21  C   UNL     1      15.162  39.692  21.302  0.00  0.00    +0.075 A 
ENDROOT
BRANCH   3   1
ATOM      1  O   UNL     1      13.964  37.595  21.190  0.00  0.00    -0.494 OA
ATOM      2  C   UNL     1      12.582  37.575  21.536  0.00  0.00    +0.277 C 
ENDBRANCH   3   1
BRANCH   6  19
ATOM     19  O   UNL     1      16.392  38.679  25.141  0.00  0.00    -0.506 OA
ATOM     20  H   UNL     1      16.225  37.735  25.301  0.00  0.00    +0.292 HD
ENDBRANCH   6  19
TORSDOF 2
ENDMDL
MODEL 9
REMARK VINA RESULT:    -6.206     19.445     21.315
REMARK INTER + INTRA:          -6.345
REMARK INTER:                  -6.716
REMARK INTRA:                   0.371
REMARK UNBOUND:                 0.405
REMARK  Name = C:\Users\HP\Downloads\Anthraquinone_pdb\AD22.pdb
REMARK  4 active torsions:
REMARK  status: ('A' for Active; 'I' for Inactive)
REMARK    1  A    between atoms: O_1  and  C_8
REMARK    2  A    between atoms: O_1  and  C_20
REMARK    3  A    between atoms: O_2  and  C_14
REMARK    4  A    between atoms: C_12  and  C_17
REMARK                            x       y       z     vdW  Elec       q    Type
REMARK                         _______ _______ _______ _____ _____    ______ ____
ROOT
ATOM      3  C   UNL     1      22.550  48.114   7.059  0.00  0.00    +0.138 A 
ATOM      4  C   UNL     1      22.834  49.017   8.084  0.00  0.00    +0.033 A 
ATOM      5  C   UNL     1      23.943  48.738   9.047  0.00  0.00    +0.051 C 
ATOM      6  C   UNL     1      22.083  50.183   8.215  0.00  0.00    +0.124 A 
ATOM      7  C   UNL     1      21.045  50.452   7.321  0.00  0.00    +0.058 A 
ATOM      8  C   UNL     1      20.759  49.550   6.291  0.00  0.00    +0.040 A 
ATOM      9  C   UNL     1      19.659  49.843   5.348  0.00  0.00    +0.195 C 
ATOM     10  C   UNL     1      19.366  48.881   4.266  0.00  0.00    +0.033 A 
ATOM     11  C   UNL     1      18.326  49.147   3.368  0.00  0.00    +0.012 A 
ATOM     12  C   UNL     1      18.043  48.244   2.342  0.00  0.00    +0.001 A 
ATOM     13  C   UNL     1      18.793  47.077   2.211  0.00  0.00    +0.001 A 
ATOM     14  C   UNL     1      19.830  46.808   3.105  0.00  0.00    +0.012 A 
ATOM     15  C   UNL     1      20.118  47.712   4.135  0.00  0.00    +0.033 A 
ATOM     16  C   UNL     1      21.218  47.419   5.076  0.00  0.00    +0.198 C 
ATOM     17  O   UNL     1      21.860  46.386   4.939  0.00  0.00    -0.286 OA
ATOM     18  O   UNL     1      18.999  50.868   5.464  0.00  0.00    -0.287 OA
ATOM     21  C   UNL     1      21.511  48.380   6.159  0.00  0.00    +0.075 A 
ENDROOT
BRANCH   3   1
ATOM      1  O   UNL     1      23.313  46.986   6.969  0.00  0.00    -0.494 OA
ATOM      2  C   UNL     1      22.988  45.915   7.852  0.00  0.00    +0.277 C 
ENDBRANCH   3   1
BRANCH   6  19
ATOM     19  O   UNL     1      22.346  51.074   9.213  0.00  0.00    -0.506 OA
ATOM     20  H   UNL     1      22.892  51.797   8.859  0.00  0.00    +0.292 HD
ENDBRANCH   6  19
TORSDOF 2
ENDMDL
