MODEL 1
REMARK VINA RESULT:    -7.067      0.000      0.000
REMARK INTER + INTRA:          -7.687
REMARK INTER:                  -7.687
REMARK INTRA:                   0.000
REMARK UNBOUND:                 0.000
REMARK  Name = C:\Users\HP\Downloads\Anthraquinone_pdb\AD24.pdb
REMARK  4 active torsions:
REMARK  status: ('A' for Active; 'I' for Inactive)
REMARK    1  A    between atoms: O_3  and  C_14
REMARK    2  A    between atoms: O_4  and  C_17
REMARK    3  A    between atoms: O_5  and  C_19
REMARK    4  A    between atoms: C_11  and  C_18
REMARK                            x       y       z     vdW  Elec       q    Type
REMARK                         _______ _______ _______ _____ _____    ______ ____
ROOT
ATOM      1  O   UNL     1      19.445  57.160  24.051  0.00  0.00    -0.286 OA
ATOM      2  C   UNL     1      20.234  56.494  24.709  0.00  0.00    +0.198 C 
ATOM      3  C   UNL     1      19.749  55.674  25.838  0.00  0.00    +0.075 A 
ATOM      4  C   UNL     1      18.383  55.662  26.148  0.00  0.00    +0.132 A 
ATOM      5  C   UNL     1      17.917  54.891  27.212  0.00  0.00    +0.091 A 
ATOM      6  C   UNL     1      18.808  54.131  27.968  0.00  0.00    +0.121 A 
ATOM      7  C   UNL     1      20.169  54.140  27.663  0.00  0.00    +0.058 A 
ATOM     12  C   UNL     1      20.642  54.912  26.596  0.00  0.00    +0.040 A 
ATOM     13  C   UNL     1      22.084  54.915  26.278  0.00  0.00    +0.195 C 
ATOM     14  C   UNL     1      22.569  55.735  25.149  0.00  0.00    +0.037 A 
ATOM     15  C   UNL     1      23.935  55.746  24.840  0.00  0.00    +0.057 A 
ATOM     16  C   UNL     1      24.402  56.519  23.775  0.00  0.00    +0.118 A 
ATOM     17  C   UNL     1      23.511  57.278  23.019  0.00  0.00    +0.049 A 
ATOM     18  C   UNL     1      22.149  57.269  23.325  0.00  0.00    -0.036 A 
ATOM     19  C   UNL     1      21.279  58.117  22.452  0.00  0.00    +0.044 C 
ATOM     22  O   UNL     1      22.868  54.248  26.944  0.00  0.00    -0.287 OA
ATOM     23  C   UNL     1      21.677  56.496  24.393  0.00  0.00    +0.036 A 
ENDROOT
BRANCH   6   8
ATOM      8  O   UNL     1      18.348  53.381  29.007  0.00  0.00    -0.507 OA
ATOM      9  H   UNL     1      19.108  53.046  29.515  0.00  0.00    +0.292 HD
ENDBRANCH   6   8
BRANCH   4  10
ATOM     10  O   UNL     1      17.456  56.379  25.451  0.00  0.00    -0.506 OA
ATOM     11  H   UNL     1      16.626  55.876  25.396  0.00  0.00    +0.292 HD
ENDBRANCH   4  10
BRANCH  16  20
ATOM     20  O   UNL     1      25.729  56.531  23.476  0.00  0.00    -0.507 OA
ATOM     21  H   UNL     1      26.239  56.410  24.295  0.00  0.00    +0.292 HD
ENDBRANCH  16  20
TORSDOF 3
ENDMDL
MODEL 2
REMARK VINA RESULT:    -7.031      3.785      6.469
REMARK INTER + INTRA:          -7.647
REMARK INTER:                  -7.647
REMARK INTRA:                   0.000
REMARK UNBOUND:                 0.000
REMARK  Name = C:\Users\HP\Downloads\Anthraquinone_pdb\AD24.pdb
REMARK  4 active torsions:
REMARK  status: ('A' for Active; 'I' for Inactive)
REMARK    1  A    between atoms: O_3  and  C_14
REMARK    2  A    between atoms: O_4  and  C_17
REMARK    3  A    between atoms: O_5  and  C_19
REMARK    4  A    between atoms: C_11  and  C_18
REMARK                            x       y       z     vdW  Elec       q    Type
REMARK                         _______ _______ _______ _____ _____    ______ ____
ROOT
ATOM      1  O   UNL     1      20.962  57.282  28.149  0.00  0.00    -0.286 OA
ATOM      2  C   UNL     1      19.767  57.035  28.250  0.00  0.00    +0.198 C 
ATOM      3  C   UNL     1      19.147  56.011  27.386  0.00  0.00    +0.075 A 
ATOM      4  C   UNL     1      19.934  55.323  26.454  0.00  0.00    +0.132 A 
ATOM      5  C   UNL     1      19.356  54.354  25.634  0.00  0.00    +0.091 A 
ATOM      6  C   UNL     1      17.996  54.069  25.740  0.00  0.00    +0.121 A 
ATOM      7  C   UNL     1      17.208  54.752  26.666  0.00  0.00    +0.058 A 
ATOM     12  C   UNL     1      17.783  55.725  27.491  0.00  0.00    +0.040 A 
ATOM     13  C   UNL     1      16.942  56.443  28.470  0.00  0.00    +0.195 C 
ATOM     14  C   UNL     1      17.562  57.467  29.335  0.00  0.00    +0.037 A 
ATOM     15  C   UNL     1      16.774  58.155  30.267  0.00  0.00    +0.057 A 
ATOM     16  C   UNL     1      17.352  59.125  31.086  0.00  0.00    +0.118 A 
ATOM     17  C   UNL     1      18.713  59.410  30.981  0.00  0.00    +0.049 A 
ATOM     18  C   UNL     1      19.500  58.726  30.053  0.00  0.00    -0.036 A 
ATOM     19  C   UNL     1      20.947  59.107  30.021  0.00  0.00    +0.044 C 
ATOM     22  O   UNL     1      15.746  56.193  28.563  0.00  0.00    -0.287 OA
ATOM     23  C   UNL     1      18.924  57.753  29.228  0.00  0.00    +0.036 A 
ENDROOT
BRANCH   6   8
ATOM      8  O   UNL     1      17.436  53.123  24.936  0.00  0.00    -0.507 OA
ATOM      9  H   UNL     1      17.056  52.421  25.492  0.00  0.00    +0.292 HD
ENDBRANCH   6   8
BRANCH   4  10
ATOM     10  O   UNL     1      21.269  55.549  26.297  0.00  0.00    -0.506 OA
ATOM     11  H   UNL     1      21.590  56.124  27.013  0.00  0.00    +0.292 HD
ENDBRANCH   4  10
BRANCH  16  20
ATOM     20  O   UNL     1      16.586  59.795  31.990  0.00  0.00    -0.507 OA
ATOM     21  H   UNL     1      15.683  59.434  31.968  0.00  0.00    +0.292 HD
ENDBRANCH  16  20
TORSDOF 3
ENDMDL
MODEL 3
REMARK VINA RESULT:    -7.008      3.769      5.868
REMARK INTER + INTRA:          -7.623
REMARK INTER:                  -7.623
REMARK INTRA:                   0.000
REMARK UNBOUND:                 0.000
REMARK  Name = C:\Users\HP\Downloads\Anthraquinone_pdb\AD24.pdb
REMARK  4 active torsions:
REMARK  status: ('A' for Active; 'I' for Inactive)
REMARK    1  A    between atoms: O_3  and  C_14
REMARK    2  A    between atoms: O_4  and  C_17
REMARK    3  A    between atoms: O_5  and  C_19
REMARK    4  A    between atoms: C_11  and  C_18
REMARK                            x       y       z     vdW  Elec       q    Type
REMARK                         _______ _______ _______ _____ _____    ______ ____
ROOT
ATOM      1  O   UNL     1      20.929  57.180  28.145  0.00  0.00    -0.286 OA
ATOM      2  C   UNL     1      19.731  56.940  28.227  0.00  0.00    +0.198 C 
ATOM      3  C   UNL     1      18.892  57.678  29.192  0.00  0.00    +0.075 A 
ATOM      4  C   UNL     1      19.473  58.654  30.010  0.00  0.00    +0.132 A 
ATOM      5  C   UNL     1      18.688  59.356  30.924  0.00  0.00    +0.091 A 
ATOM      6  C   UNL     1      17.324  59.086  31.026  0.00  0.00    +0.121 A 
ATOM      7  C   UNL     1      16.740  58.114  30.213  0.00  0.00    +0.058 A 
ATOM     12  C   UNL     1      17.525  57.408  29.294  0.00  0.00    +0.040 A 
ATOM     13  C   UNL     1      16.899  56.381  28.436  0.00  0.00    +0.195 C 
ATOM     14  C   UNL     1      17.738  55.643  27.471  0.00  0.00    +0.037 A 
ATOM     15  C   UNL     1      17.156  54.667  26.653  0.00  0.00    +0.057 A 
ATOM     16  C   UNL     1      17.942  53.964  25.739  0.00  0.00    +0.118 A 
ATOM     17  C   UNL     1      19.306  54.233  25.637  0.00  0.00    +0.049 A 
ATOM     18  C   UNL     1      19.889  55.206  26.451  0.00  0.00    -0.036 A 
ATOM     19  C   UNL     1      21.359  55.418  26.262  0.00  0.00    +0.044 C 
ATOM     22  O   UNL     1      15.700  56.144  28.526  0.00  0.00    -0.287 OA
ATOM     23  C   UNL     1      19.105  55.912  27.370  0.00  0.00    +0.036 A 
ENDROOT
BRANCH   6   8
ATOM      8  O   UNL     1      16.561  59.773  31.920  0.00  0.00    -0.507 OA
ATOM      9  H   UNL     1      15.757  59.258  32.110  0.00  0.00    +0.292 HD
ENDBRANCH   6   8
BRANCH   4  10
ATOM     10  O   UNL     1      20.799  58.970  29.964  0.00  0.00    -0.506 OA
ATOM     11  H   UNL     1      21.307  58.330  30.491  0.00  0.00    +0.292 HD
ENDBRANCH   4  10
BRANCH  16  20
ATOM     20  O   UNL     1      17.377  53.014  24.946  0.00  0.00    -0.507 OA
ATOM     21  H   UNL     1      17.937  52.219  24.956  0.00  0.00    +0.292 HD
ENDBRANCH  16  20
TORSDOF 3
ENDMDL
MODEL 4
REMARK VINA RESULT:    -6.647     18.679     20.846
REMARK INTER + INTRA:          -7.230
REMARK INTER:                  -7.230
REMARK INTRA:                   0.000
REMARK UNBOUND:                 0.000
REMARK  Name = C:\Users\HP\Downloads\Anthraquinone_pdb\AD24.pdb
REMARK  4 active torsions:
REMARK  status: ('A' for Active; 'I' for Inactive)
REMARK    1  A    between atoms: O_3  and  C_14
REMARK    2  A    between atoms: O_4  and  C_17
REMARK    3  A    between atoms: O_5  and  C_19
REMARK    4  A    between atoms: C_11  and  C_18
REMARK                            x       y       z     vdW  Elec       q    Type
REMARK                         _______ _______ _______ _____ _____    ______ ____
ROOT
ATOM      1  O   UNL     1       7.788  69.481  34.651  0.00  0.00    -0.286 OA
ATOM      2  C   UNL     1       7.696  69.554  33.432  0.00  0.00    +0.198 C 
ATOM      3  C   UNL     1       6.621  70.360  32.818  0.00  0.00    +0.075 A 
ATOM      4  C   UNL     1       5.713  71.042  33.637  0.00  0.00    +0.132 A 
ATOM      5  C   UNL     1       4.695  71.804  33.066  0.00  0.00    +0.091 A 
ATOM      6  C   UNL     1       4.580  71.890  31.679  0.00  0.00    +0.121 A 
ATOM      7  C   UNL     1       5.483  71.213  30.859  0.00  0.00    +0.058 A 
ATOM     12  C   UNL     1       6.506  70.446  31.428  0.00  0.00    +0.040 A 
ATOM     13  C   UNL     1       7.457  69.733  30.553  0.00  0.00    +0.195 C 
ATOM     14  C   UNL     1       8.532  68.927  31.167  0.00  0.00    +0.037 A 
ATOM     15  C   UNL     1       9.440  68.245  30.347  0.00  0.00    +0.057 A 
ATOM     16  C   UNL     1      10.458  67.481  30.919  0.00  0.00    +0.118 A 
ATOM     17  C   UNL     1      10.573  67.395  32.306  0.00  0.00    +0.049 A 
ATOM     18  C   UNL     1       9.670  68.073  33.125  0.00  0.00    -0.036 A 
ATOM     19  C   UNL     1       9.882  67.916  34.598  0.00  0.00    +0.044 C 
ATOM     22  O   UNL     1       7.356  69.807  29.334  0.00  0.00    -0.287 OA
ATOM     23  C   UNL     1       8.647  68.840  32.555  0.00  0.00    +0.036 A 
ENDROOT
BRANCH   6   8
ATOM      8  O   UNL     1       3.584  72.636  31.125  0.00  0.00    -0.507 OA
ATOM      9  H   UNL     1       3.894  73.552  31.025  0.00  0.00    +0.292 HD
ENDBRANCH   6   8
BRANCH   4  10
ATOM     10  O   UNL     1       5.766  71.003  34.999  0.00  0.00    -0.506 OA
ATOM     11  H   UNL     1       4.977  70.553  35.346  0.00  0.00    +0.292 HD
ENDBRANCH   4  10
BRANCH  16  20
ATOM     20  O   UNL     1      11.339  66.817  30.122  0.00  0.00    -0.507 OA
ATOM     21  H   UNL     1      12.231  66.902  30.499  0.00  0.00    +0.292 HD
ENDBRANCH  16  20
TORSDOF 3
ENDMDL
MODEL 5
REMARK VINA RESULT:    -6.581      1.404      6.248
REMARK INTER + INTRA:          -7.158
REMARK INTER:                  -7.158
REMARK INTRA:                   0.000
REMARK UNBOUND:                 0.000
REMARK  Name = C:\Users\HP\Downloads\Anthraquinone_pdb\AD24.pdb
REMARK  4 active torsions:
REMARK  status: ('A' for Active; 'I' for Inactive)
REMARK    1  A    between atoms: O_3  and  C_14
REMARK    2  A    between atoms: O_4  and  C_17
REMARK    3  A    between atoms: O_5  and  C_19
REMARK    4  A    between atoms: C_11  and  C_18
REMARK                            x       y       z     vdW  Elec       q    Type
REMARK                         _______ _______ _______ _____ _____    ______ ____
ROOT
ATOM      1  O   UNL     1      22.585  54.979  26.840  0.00  0.00    -0.286 OA
ATOM      2  C   UNL     1      21.630  55.430  26.222  0.00  0.00    +0.198 C 
ATOM      3  C   UNL     1      21.851  56.310  25.056  0.00  0.00    +0.075 A 
ATOM      4  C   UNL     1      23.159  56.620  24.661  0.00  0.00    +0.132 A 
ATOM      5  C   UNL     1      23.377  57.449  23.562  0.00  0.00    +0.091 A 
ATOM      6  C   UNL     1      22.295  57.971  22.854  0.00  0.00    +0.121 A 
ATOM      7  C   UNL     1      20.991  57.665  23.243  0.00  0.00    +0.058 A 
ATOM     12  C   UNL     1      20.767  56.833  24.346  0.00  0.00    +0.040 A 
ATOM     13  C   UNL     1      19.383  56.513  24.751  0.00  0.00    +0.195 C 
ATOM     14  C   UNL     1      19.162  55.633  25.917  0.00  0.00    +0.037 A 
ATOM     15  C   UNL     1      17.854  55.323  26.311  0.00  0.00    +0.057 A 
ATOM     16  C   UNL     1      17.636  54.494  27.412  0.00  0.00    +0.118 A 
ATOM     17  C   UNL     1      18.718  53.972  28.120  0.00  0.00    +0.049 A 
ATOM     18  C   UNL     1      20.022  54.279  27.730  0.00  0.00    -0.036 A 
ATOM     19  C   UNL     1      21.111  53.668  28.555  0.00  0.00    +0.044 C 
ATOM     22  O   UNL     1      18.433  56.972  24.130  0.00  0.00    -0.287 OA
ATOM     23  C   UNL     1      20.246  55.112  26.627  0.00  0.00    +0.036 A 
ENDROOT
BRANCH   6   8
ATOM      8  O   UNL     1      22.512  58.781  21.782  0.00  0.00    -0.507 OA
ATOM      9  H   UNL     1      23.191  59.438  22.014  0.00  0.00    +0.292 HD
ENDBRANCH   6   8
BRANCH   4  10
ATOM     10  O   UNL     1      24.262  56.145  25.306  0.00  0.00    -0.506 OA
ATOM     11  H   UNL     1      24.451  55.239  25.008  0.00  0.00    +0.292 HD
ENDBRANCH   4  10
BRANCH  16  20
ATOM     20  O   UNL     1      16.366  54.195  27.796  0.00  0.00    -0.507 OA
ATOM     21  H   UNL     1      15.760  54.863  27.432  0.00  0.00    +0.292 HD
ENDBRANCH  16  20
TORSDOF 3
ENDMDL
MODEL 6
REMARK VINA RESULT:    -6.524      2.595      4.247
REMARK INTER + INTRA:          -7.096
REMARK INTER:                  -7.096
REMARK INTRA:                   0.000
REMARK UNBOUND:                 0.000
REMARK  Name = C:\Users\HP\Downloads\Anthraquinone_pdb\AD24.pdb
REMARK  4 active torsions:
REMARK  status: ('A' for Active; 'I' for Inactive)
REMARK    1  A    between atoms: O_3  and  C_14
REMARK    2  A    between atoms: O_4  and  C_17
REMARK    3  A    between atoms: O_5  and  C_19
REMARK    4  A    between atoms: C_11  and  C_18
REMARK                            x       y       z     vdW  Elec       q    Type
REMARK                         _______ _______ _______ _____ _____    ______ ____
ROOT
ATOM      1  O   UNL     1      24.209  57.249  26.872  0.00  0.00    -0.286 OA
ATOM      2  C   UNL     1      23.377  57.505  26.011  0.00  0.00    +0.198 C 
ATOM      3  C   UNL     1      22.177  56.656  25.864  0.00  0.00    +0.075 A 
ATOM      4  C   UNL     1      21.995  55.561  26.717  0.00  0.00    +0.132 A 
ATOM      5  C   UNL     1      20.866  54.755  26.586  0.00  0.00    +0.091 A 
ATOM      6  C   UNL     1      19.915  55.037  25.606  0.00  0.00    +0.121 A 
ATOM      7  C   UNL     1      20.092  56.128  24.753  0.00  0.00    +0.058 A 
ATOM     12  C   UNL     1      21.225  56.940  24.882  0.00  0.00    +0.040 A 
ATOM     13  C   UNL     1      21.403  58.093  23.977  0.00  0.00    +0.195 C 
ATOM     14  C   UNL     1      22.603  58.941  24.123  0.00  0.00    +0.037 A 
ATOM     15  C   UNL     1      22.784  60.037  23.270  0.00  0.00    +0.057 A 
ATOM     16  C   UNL     1      23.916  60.843  23.401  0.00  0.00    +0.118 A 
ATOM     17  C   UNL     1      24.866  60.560  24.381  0.00  0.00    +0.049 A 
ATOM     18  C   UNL     1      24.688  59.469  25.233  0.00  0.00    -0.036 A 
ATOM     19  C   UNL     1      25.765  59.254  26.250  0.00  0.00    +0.044 C 
ATOM     22  O   UNL     1      20.569  58.340  23.115  0.00  0.00    -0.287 OA
ATOM     23  C   UNL     1      23.556  58.658  25.104  0.00  0.00    +0.036 A 
ENDROOT
BRANCH   6   8
ATOM      8  O   UNL     1      18.814  54.247  25.480  0.00  0.00    -0.507 OA
ATOM      9  H   UNL     1      18.030  54.751  25.759  0.00  0.00    +0.292 HD
ENDBRANCH   6   8
BRANCH   4  10
ATOM     10  O   UNL     1      22.883  55.227  27.697  0.00  0.00    -0.506 OA
ATOM     11  H   UNL     1      22.504  54.529  28.258  0.00  0.00    +0.292 HD
ENDBRANCH   4  10
BRANCH  16  20
ATOM     20  O   UNL     1      24.092  61.906  22.571  0.00  0.00    -0.507 OA
ATOM     21  H   UNL     1      24.075  62.724  23.096  0.00  0.00    +0.292 HD
ENDBRANCH  16  20
TORSDOF 3
ENDMDL
MODEL 7
REMARK VINA RESULT:    -6.472     18.639     20.221
REMARK INTER + INTRA:          -7.040
REMARK INTER:                  -7.040
REMARK INTRA:                   0.000
REMARK UNBOUND:                 0.000
REMARK  Name = C:\Users\HP\Downloads\Anthraquinone_pdb\AD24.pdb
REMARK  4 active torsions:
REMARK  status: ('A' for Active; 'I' for Inactive)
REMARK    1  A    between atoms: O_3  and  C_14
REMARK    2  A    between atoms: O_4  and  C_17
REMARK    3  A    between atoms: O_5  and  C_19
REMARK    4  A    between atoms: C_11  and  C_18
REMARK                            x       y       z     vdW  Elec       q    Type
REMARK                         _______ _______ _______ _____ _____    ______ ____
ROOT
ATOM      1  O   UNL     1      20.869  47.434   6.188  0.00  0.00    -0.286 OA
ATOM      2  C   UNL     1      21.581  48.394   6.451  0.00  0.00    +0.198 C 
ATOM      3  C   UNL     1      22.735  48.235   7.359  0.00  0.00    +0.075 A 
ATOM      4  C   UNL     1      23.011  46.979   7.914  0.00  0.00    +0.132 A 
ATOM      5  C   UNL     1      24.098  46.819   8.772  0.00  0.00    +0.091 A 
ATOM      6  C   UNL     1      24.911  47.908   9.080  0.00  0.00    +0.121 A 
ATOM      7  C   UNL     1      24.640  49.162   8.530  0.00  0.00    +0.058 A 
ATOM     12  C   UNL     1      23.550  49.326   7.668  0.00  0.00    +0.040 A 
ATOM     13  C   UNL     1      23.271  50.656   7.090  0.00  0.00    +0.195 C 
ATOM     14  C   UNL     1      22.117  50.816   6.182  0.00  0.00    +0.037 A 
ATOM     15  C   UNL     1      21.841  52.073   5.628  0.00  0.00    +0.057 A 
ATOM     16  C   UNL     1      20.752  52.232   4.770  0.00  0.00    +0.118 A 
ATOM     17  C   UNL     1      19.939  51.143   4.462  0.00  0.00    +0.049 A 
ATOM     18  C   UNL     1      20.211  49.890   5.012  0.00  0.00    -0.036 A 
ATOM     19  C   UNL     1      19.278  48.788   4.617  0.00  0.00    +0.044 C 
ATOM     22  O   UNL     1      23.985  51.614   7.361  0.00  0.00    -0.287 OA
ATOM     23  C   UNL     1      21.301  49.725   5.874  0.00  0.00    +0.036 A 
ENDROOT
BRANCH   6   8
ATOM      8  O   UNL     1      25.971  47.748   9.919  0.00  0.00    -0.507 OA
ATOM      9  H   UNL     1      26.511  47.001   9.608  0.00  0.00    +0.292 HD
ENDBRANCH   6   8
BRANCH   4  10
ATOM     10  O   UNL     1      22.259  45.871   7.656  0.00  0.00    -0.506 OA
ATOM     11  H   UNL     1      22.470  45.174   8.300  0.00  0.00    +0.292 HD
ENDBRANCH   4  10
BRANCH  16  20
ATOM     20  O   UNL     1      20.484  53.454   4.234  0.00  0.00    -0.507 OA
ATOM     21  H   UNL     1      19.521  53.593   4.230  0.00  0.00    +0.292 HD
ENDBRANCH  16  20
TORSDOF 3
ENDMDL
MODEL 8
REMARK VINA RESULT:    -6.410     15.610     17.434
REMARK INTER + INTRA:          -6.973
REMARK INTER:                  -6.973
REMARK INTRA:                   0.000
REMARK UNBOUND:                 0.000
REMARK  Name = C:\Users\HP\Downloads\Anthraquinone_pdb\AD24.pdb
REMARK  4 active torsions:
REMARK  status: ('A' for Active; 'I' for Inactive)
REMARK    1  A    between atoms: O_3  and  C_14
REMARK    2  A    between atoms: O_4  and  C_17
REMARK    3  A    between atoms: O_5  and  C_19
REMARK    4  A    between atoms: C_11  and  C_18
REMARK                            x       y       z     vdW  Elec       q    Type
REMARK                         _______ _______ _______ _____ _____    ______ ____
ROOT
ATOM      1  O   UNL     1      14.590  38.287  21.217  0.00  0.00    -0.286 OA
ATOM      2  C   UNL     1      15.220  39.298  21.499  0.00  0.00    +0.198 C 
ATOM      3  C   UNL     1      15.338  40.395  20.517  0.00  0.00    +0.075 A 
ATOM      4  C   UNL     1      14.723  40.272  19.265  0.00  0.00    +0.132 A 
ATOM      5  C   UNL     1      14.830  41.303  18.333  0.00  0.00    +0.091 A 
ATOM      6  C   UNL     1      15.548  42.456  18.644  0.00  0.00    +0.121 A 
ATOM      7  C   UNL     1      16.163  42.583  19.890  0.00  0.00    +0.058 A 
ATOM     12  C   UNL     1      16.058  41.551  20.829  0.00  0.00    +0.040 A 
ATOM     13  C   UNL     1      16.711  41.693  22.146  0.00  0.00    +0.195 C 
ATOM     14  C   UNL     1      16.592  40.596  23.128  0.00  0.00    +0.037 A 
ATOM     15  C   UNL     1      17.208  40.720  24.381  0.00  0.00    +0.057 A 
ATOM     16  C   UNL     1      17.102  39.688  25.314  0.00  0.00    +0.118 A 
ATOM     17  C   UNL     1      16.384  38.534  25.002  0.00  0.00    +0.049 A 
ATOM     18  C   UNL     1      15.769  38.409  23.756  0.00  0.00    -0.036 A 
ATOM     19  C   UNL     1      15.023  37.133  23.523  0.00  0.00    +0.044 C 
ATOM     22  O   UNL     1      17.343  42.707  22.420  0.00  0.00    -0.287 OA
ATOM     23  C   UNL     1      15.874  39.441  22.816  0.00  0.00    +0.036 A 
ENDROOT
BRANCH   6   8
ATOM      8  O   UNL     1      15.650  43.460  17.729  0.00  0.00    -0.507 OA
ATOM      9  H   UNL     1      15.685  43.072  16.838  0.00  0.00    +0.292 HD
ENDBRANCH   6   8
BRANCH   4  10
ATOM     10  O   UNL     1      14.005  39.174  18.894  0.00  0.00    -0.506 OA
ATOM     11  H   UNL     1      14.389  38.379  19.301  0.00  0.00    +0.292 HD
ENDBRANCH   4  10
BRANCH  16  20
ATOM     20  O   UNL     1      17.702  39.807  26.529  0.00  0.00    -0.507 OA
ATOM     21  H   UNL     1      17.389  39.091  27.108  0.00  0.00    +0.292 HD
ENDBRANCH  16  20
TORSDOF 3
ENDMDL
MODEL 9
REMARK VINA RESULT:    -6.395     18.919     20.679
REMARK INTER + INTRA:          -6.956
REMARK INTER:                  -6.956
REMARK INTRA:                   0.000
REMARK UNBOUND:                 0.000
REMARK  Name = C:\Users\HP\Downloads\Anthraquinone_pdb\AD24.pdb
REMARK  4 active torsions:
REMARK  status: ('A' for Active; 'I' for Inactive)
REMARK    1  A    between atoms: O_3  and  C_14
REMARK    2  A    between atoms: O_4  and  C_17
REMARK    3  A    between atoms: O_5  and  C_19
REMARK    4  A    between atoms: C_11  and  C_18
REMARK                            x       y       z     vdW  Elec       q    Type
REMARK                         _______ _______ _______ _____ _____    ______ ____
ROOT
ATOM      1  O   UNL     1      22.678  46.035   5.475  0.00  0.00    -0.286 OA
ATOM      2  C   UNL     1      22.524  47.099   6.061  0.00  0.00    +0.198 C 
ATOM      3  C   UNL     1      21.408  47.993   5.690  0.00  0.00    +0.075 A 
ATOM      4  C   UNL     1      20.528  47.615   4.669  0.00  0.00    +0.132 A 
ATOM      5  C   UNL     1      19.472  48.453   4.313  0.00  0.00    +0.091 A 
ATOM      6  C   UNL     1      19.291  49.668   4.972  0.00  0.00    +0.121 A 
ATOM      7  C   UNL     1      20.165  50.049   5.990  0.00  0.00    +0.058 A 
ATOM     12  C   UNL     1      21.226  49.211   6.351  0.00  0.00    +0.040 A 
ATOM     13  C   UNL     1      22.146  49.621   7.431  0.00  0.00    +0.195 C 
ATOM     14  C   UNL     1      23.262  48.727   7.801  0.00  0.00    +0.037 A 
ATOM     15  C   UNL     1      24.142  49.105   8.823  0.00  0.00    +0.057 A 
ATOM     16  C   UNL     1      25.199  48.267   9.179  0.00  0.00    +0.118 A 
ATOM     17  C   UNL     1      25.381  47.052   8.520  0.00  0.00    +0.049 A 
ATOM     18  C   UNL     1      24.505  46.672   7.501  0.00  0.00    -0.036 A 
ATOM     19  C   UNL     1      24.788  45.350   6.859  0.00  0.00    +0.044 C 
ATOM     22  O   UNL     1      21.987  50.689   8.010  0.00  0.00    -0.287 OA
ATOM     23  C   UNL     1      23.444  47.511   7.140  0.00  0.00    +0.036 A 
ENDROOT
BRANCH   6   8
ATOM      8  O   UNL     1      18.259  50.484   4.620  0.00  0.00    -0.507 OA
ATOM      9  H   UNL     1      17.546  50.391   5.276  0.00  0.00    +0.292 HD
ENDBRANCH   6   8
BRANCH   4  10
ATOM     10  O   UNL     1      20.645  46.442   3.983  0.00  0.00    -0.506 OA
ATOM     11  H   UNL     1      20.949  45.740   4.583  0.00  0.00    +0.292 HD
ENDBRANCH   4  10
BRANCH  16  20
ATOM     20  O   UNL     1      26.054  48.636  10.170  0.00  0.00    -0.507 OA
ATOM     21  H   UNL     1      26.482  47.841  10.531  0.00  0.00    +0.292 HD
ENDBRANCH  16  20
TORSDOF 3
ENDMDL
