MODEL 1
REMARK VINA RESULT:    -6.983      0.000      0.000
REMARK INTER + INTRA:          -8.532
REMARK INTER:                  -8.207
REMARK INTRA:                  -0.324
REMARK UNBOUND:                -0.324
REMARK  Name = C:\Users\HP\Downloads\Anthraquinone_pdb\AD25.pdb
REMARK  6 active torsions:
REMARK  status: ('A' for Active; 'I' for Inactive)
REMARK    1  A    between atoms: O_3  and  C_16
REMARK    2  A    between atoms: O_4  and  C_17
REMARK    3  A    between atoms: O_5  and  C_22
REMARK    4  A    between atoms: O_5  and  C_23
REMARK    5  A    between atoms: C_9  and  C_18
REMARK    6  A    between atoms: C_14  and  C_22
REMARK                            x       y       z     vdW  Elec       q    Type
REMARK                         _______ _______ _______ _____ _____    ______ ____
ROOT
ATOM      1  O   UNL     1      20.625  56.963  27.141  0.00  0.00    -0.286 OA
ATOM      2  C   UNL     1      19.486  56.639  27.454  0.00  0.00    +0.198 C 
ATOM      3  C   UNL     1      18.813  55.533  26.742  0.00  0.00    +0.074 A 
ATOM      4  C   UNL     1      19.485  54.864  25.713  0.00  0.00    +0.128 A 
ATOM      5  C   UNL     1      18.859  53.817  25.035  0.00  0.00    +0.046 A 
ATOM      6  C   UNL     1      17.562  53.439  25.382  0.00  0.00    +0.004 A 
ATOM      7  C   UNL     1      16.889  54.102  26.407  0.00  0.00    +0.012 A 
ATOM     10  C   UNL     1      17.516  55.153  27.089  0.00  0.00    +0.037 A 
ATOM     11  C   UNL     1      16.795  55.851  28.173  0.00  0.00    +0.195 C 
ATOM     12  C   UNL     1      17.468  56.957  28.886  0.00  0.00    +0.037 A 
ATOM     13  C   UNL     1      16.797  57.625  29.916  0.00  0.00    +0.058 A 
ATOM     14  C   UNL     1      17.424  58.671  30.594  0.00  0.00    +0.132 A 
ATOM     15  C   UNL     1      18.719  59.050  30.247  0.00  0.00    +0.104 A 
ATOM     20  C   UNL     1      19.392  58.387  29.221  0.00  0.00    -0.021 A 
ATOM     21  C   UNL     1      20.782  58.851  28.904  0.00  0.00    +0.045 C 
ATOM     24  O   UNL     1      15.657  55.517  28.479  0.00  0.00    -0.287 OA
ATOM     25  C   UNL     1      18.766  57.338  28.538  0.00  0.00    +0.037 A 
ENDROOT
BRANCH   4   8
ATOM      8  O   UNL     1      20.753  55.181  25.320  0.00  0.00    -0.506 OA
ATOM      9  H   UNL     1      20.856  56.139  25.231  0.00  0.00    +0.292 HD
ENDBRANCH   4   8
BRANCH  15  16
ATOM     16  C   UNL     1      19.357  60.148  30.971  0.00  0.00    +0.343 C 
ATOM     17  O   UNL     1      20.179  59.995  31.879  0.00  0.00    -0.245 OA
BRANCH  16  18
ATOM     18  O   UNL     1      18.929  61.361  30.512  0.00  0.00    -0.464 OA
ATOM     19  C   UNL     1      18.644  62.357  31.500  0.00  0.00    +0.280 C 
ENDBRANCH  16  18
ENDBRANCH  15  16
BRANCH  14  22
ATOM     22  O   UNL     1      16.750  59.307  31.595  0.00  0.00    -0.506 OA
ATOM     23  H   UNL     1      16.144  58.677  32.022  0.00  0.00    +0.292 HD
ENDBRANCH  14  22
TORSDOF 4
ENDMDL
MODEL 2
REMARK VINA RESULT:    -6.838     22.069     24.022
REMARK INTER + INTRA:          -8.362
REMARK INTER:                  -8.047
REMARK INTRA:                  -0.315
REMARK UNBOUND:                -0.324
REMARK  Name = C:\Users\HP\Downloads\Anthraquinone_pdb\AD25.pdb
REMARK  6 active torsions:
REMARK  status: ('A' for Active; 'I' for Inactive)
REMARK    1  A    between atoms: O_3  and  C_16
REMARK    2  A    between atoms: O_4  and  C_17
REMARK    3  A    between atoms: O_5  and  C_22
REMARK    4  A    between atoms: O_5  and  C_23
REMARK    5  A    between atoms: C_9  and  C_18
REMARK    6  A    between atoms: C_14  and  C_22
REMARK                            x       y       z     vdW  Elec       q    Type
REMARK                         _______ _______ _______ _____ _____    ______ ____
ROOT
ATOM      1  O   UNL     1      21.654  46.290   5.838  0.00  0.00    -0.286 OA
ATOM      2  C   UNL     1      21.794  47.435   6.248  0.00  0.00    +0.198 C 
ATOM      3  C   UNL     1      20.965  48.523   5.690  0.00  0.00    +0.074 A 
ATOM      4  C   UNL     1      20.024  48.234   4.695  0.00  0.00    +0.128 A 
ATOM      5  C   UNL     1      19.235  49.255   4.163  0.00  0.00    +0.046 A 
ATOM      6  C   UNL     1      19.385  50.563   4.621  0.00  0.00    +0.004 A 
ATOM      7  C   UNL     1      20.321  50.856   5.612  0.00  0.00    +0.012 A 
ATOM     10  C   UNL     1      21.113  49.834   6.148  0.00  0.00    +0.037 A 
ATOM     11  C   UNL     1      22.103  50.152   7.198  0.00  0.00    +0.195 C 
ATOM     12  C   UNL     1      22.932  49.064   7.756  0.00  0.00    +0.037 A 
ATOM     13  C   UNL     1      23.872  49.353   8.752  0.00  0.00    +0.058 A 
ATOM     14  C   UNL     1      24.660  48.331   9.285  0.00  0.00    +0.132 A 
ATOM     15  C   UNL     1      24.511  47.024   8.827  0.00  0.00    +0.104 A 
ATOM     20  C   UNL     1      23.576  46.732   7.835  0.00  0.00    -0.021 A 
ATOM     21  C   UNL     1      23.473  45.302   7.393  0.00  0.00    +0.045 C 
ATOM     24  O   UNL     1      22.233  51.302   7.601  0.00  0.00    -0.287 OA
ATOM     25  C   UNL     1      22.784  47.754   7.298  0.00  0.00    +0.037 A 
ENDROOT
BRANCH   4   8
ATOM      8  O   UNL     1      19.824  46.979   4.200  0.00  0.00    -0.506 OA
ATOM      9  H   UNL     1      19.176  46.497   4.733  0.00  0.00    +0.292 HD
ENDBRANCH   4   8
BRANCH  15  16
ATOM     16  C   UNL     1      25.346  45.970   9.400  0.00  0.00    +0.343 C 
ATOM     17  O   UNL     1      24.993  45.228  10.321  0.00  0.00    -0.245 OA
BRANCH  16  18
ATOM     18  O   UNL     1      26.563  45.911   8.783  0.00  0.00    -0.464 OA
ATOM     19  C   UNL     1      27.712  45.850   9.636  0.00  0.00    +0.280 C 
ENDBRANCH  16  18
ENDBRANCH  15  16
BRANCH  14  22
ATOM     22  O   UNL     1      25.569  48.637  10.255  0.00  0.00    -0.506 OA
ATOM     23  H   UNL     1      26.207  49.281   9.903  0.00  0.00    +0.292 HD
ENDBRANCH  14  22
TORSDOF 4
ENDMDL
MODEL 3
REMARK VINA RESULT:    -6.681     16.482     18.131
REMARK INTER + INTRA:          -8.178
REMARK INTER:                  -7.918
REMARK INTRA:                  -0.260
REMARK UNBOUND:                -0.324
REMARK  Name = C:\Users\HP\Downloads\Anthraquinone_pdb\AD25.pdb
REMARK  6 active torsions:
REMARK  status: ('A' for Active; 'I' for Inactive)
REMARK    1  A    between atoms: O_3  and  C_16
REMARK    2  A    between atoms: O_4  and  C_17
REMARK    3  A    between atoms: O_5  and  C_22
REMARK    4  A    between atoms: O_5  and  C_23
REMARK    5  A    between atoms: C_9  and  C_18
REMARK    6  A    between atoms: C_14  and  C_22
REMARK                            x       y       z     vdW  Elec       q    Type
REMARK                         _______ _______ _______ _____ _____    ______ ____
ROOT
ATOM      1  O   UNL     1      13.728  40.340  24.697  0.00  0.00    -0.286 OA
ATOM      2  C   UNL     1      14.898  40.691  24.622  0.00  0.00    +0.198 C 
ATOM      3  C   UNL     1      15.744  40.695  25.834  0.00  0.00    +0.074 A 
ATOM      4  C   UNL     1      15.199  40.296  27.059  0.00  0.00    +0.128 A 
ATOM      5  C   UNL     1      15.991  40.295  28.208  0.00  0.00    +0.046 A 
ATOM      6  C   UNL     1      17.325  40.693  28.137  0.00  0.00    +0.004 A 
ATOM      7  C   UNL     1      17.872  41.092  26.917  0.00  0.00    +0.012 A 
ATOM     10  C   UNL     1      17.081  41.094  25.763  0.00  0.00    +0.037 A 
ATOM     11  C   UNL     1      17.669  41.518  24.476  0.00  0.00    +0.195 C 
ATOM     12  C   UNL     1      16.822  41.514  23.264  0.00  0.00    +0.037 A 
ATOM     13  C   UNL     1      17.368  41.912  22.039  0.00  0.00    +0.058 A 
ATOM     14  C   UNL     1      16.576  41.912  20.890  0.00  0.00    +0.132 A 
ATOM     15  C   UNL     1      15.242  41.514  20.961  0.00  0.00    +0.104 A 
ATOM     20  C   UNL     1      14.694  41.117  22.180  0.00  0.00    -0.021 A 
ATOM     21  C   UNL     1      13.253  40.703  22.179  0.00  0.00    +0.045 C 
ATOM     24  O   UNL     1      18.841  41.867  24.413  0.00  0.00    -0.287 OA
ATOM     25  C   UNL     1      15.486  41.116  23.335  0.00  0.00    +0.037 A 
ENDROOT
BRANCH   4   8
ATOM      8  O   UNL     1      13.903  39.895  27.203  0.00  0.00    -0.506 OA
ATOM      9  H   UNL     1      13.562  39.527  26.375  0.00  0.00    +0.292 HD
ENDBRANCH   4   8
BRANCH  15  16
ATOM     16  C   UNL     1      14.432  41.521  19.745  0.00  0.00    +0.343 C 
ATOM     17  O   UNL     1      14.141  40.510  19.099  0.00  0.00    -0.245 OA
BRANCH  16  18
ATOM     18  O   UNL     1      14.038  42.788  19.418  0.00  0.00    -0.464 OA
ATOM     19  C   UNL     1      14.363  43.241  18.100  0.00  0.00    +0.280 C 
ENDBRANCH  16  18
ENDBRANCH  15  16
BRANCH  14  22
ATOM     22  O   UNL     1      17.130  42.304  19.707  0.00  0.00    -0.506 OA
ATOM     23  H   UNL     1      17.848  42.935  19.884  0.00  0.00    +0.292 HD
ENDBRANCH  14  22
TORSDOF 4
ENDMDL
MODEL 4
REMARK VINA RESULT:    -6.350     16.460     19.854
REMARK INTER + INTRA:          -7.788
REMARK INTER:                  -7.576
REMARK INTRA:                  -0.212
REMARK UNBOUND:                -0.324
REMARK  Name = C:\Users\HP\Downloads\Anthraquinone_pdb\AD25.pdb
REMARK  6 active torsions:
REMARK  status: ('A' for Active; 'I' for Inactive)
REMARK    1  A    between atoms: O_3  and  C_16
REMARK    2  A    between atoms: O_4  and  C_17
REMARK    3  A    between atoms: O_5  and  C_22
REMARK    4  A    between atoms: O_5  and  C_23
REMARK    5  A    between atoms: C_9  and  C_18
REMARK    6  A    between atoms: C_14  and  C_22
REMARK                            x       y       z     vdW  Elec       q    Type
REMARK                         _______ _______ _______ _____ _____    ______ ____
ROOT
ATOM      1  O   UNL     1      15.384  37.871  23.733  0.00  0.00    -0.286 OA
ATOM      2  C   UNL     1      15.844  38.960  23.413  0.00  0.00    +0.198 C 
ATOM      3  C   UNL     1      16.768  39.665  24.325  0.00  0.00    +0.074 A 
ATOM      4  C   UNL     1      17.111  39.081  25.550  0.00  0.00    +0.128 A 
ATOM      5  C   UNL     1      17.984  39.738  26.417  0.00  0.00    +0.046 A 
ATOM      6  C   UNL     1      18.515  40.978  26.065  0.00  0.00    +0.004 A 
ATOM      7  C   UNL     1      18.177  41.564  24.845  0.00  0.00    +0.012 A 
ATOM     10  C   UNL     1      17.301  40.907  23.973  0.00  0.00    +0.037 A 
ATOM     11  C   UNL     1      16.948  41.535  22.683  0.00  0.00    +0.195 C 
ATOM     12  C   UNL     1      16.024  40.830  21.771  0.00  0.00    +0.037 A 
ATOM     13  C   UNL     1      15.682  41.414  20.546  0.00  0.00    +0.058 A 
ATOM     14  C   UNL     1      14.810  40.755  19.679  0.00  0.00    +0.132 A 
ATOM     15  C   UNL     1      14.278  39.516  20.031  0.00  0.00    +0.104 A 
ATOM     20  C   UNL     1      14.616  38.931  21.250  0.00  0.00    -0.021 A 
ATOM     21  C   UNL     1      14.005  37.597  21.560  0.00  0.00    +0.045 C 
ATOM     24  O   UNL     1      17.416  42.624  22.374  0.00  0.00    -0.287 OA
ATOM     25  C   UNL     1      15.491  39.588  22.123  0.00  0.00    +0.037 A 
ENDROOT
BRANCH   4   8
ATOM      8  O   UNL     1      16.630  37.872  25.959  0.00  0.00    -0.506 OA
ATOM      9  H   UNL     1      15.941  37.984  26.631  0.00  0.00    +0.292 HD
ENDBRANCH   4   8
BRANCH  15  16
ATOM     16  C   UNL     1      13.368  38.844  19.106  0.00  0.00    +0.343 C 
ATOM     17  O   UNL     1      13.725  38.272  18.073  0.00  0.00    -0.245 OA
BRANCH  16  18
ATOM     18  O   UNL     1      12.073  38.930  19.535  0.00  0.00    -0.464 OA
ATOM     19  C   UNL     1      11.180  37.905  19.086  0.00  0.00    +0.280 C 
ENDBRANCH  16  18
ENDBRANCH  15  16
BRANCH  14  22
ATOM     22  O   UNL     1      14.493  41.344  18.490  0.00  0.00    -0.506 OA
ATOM     23  H   UNL     1      14.672  40.719  17.766  0.00  0.00    +0.292 HD
ENDBRANCH  14  22
TORSDOF 4
ENDMDL
MODEL 5
REMARK VINA RESULT:    -6.264     28.285     29.450
REMARK INTER + INTRA:          -7.687
REMARK INTER:                  -7.373
REMARK INTRA:                  -0.314
REMARK UNBOUND:                -0.324
REMARK  Name = C:\Users\HP\Downloads\Anthraquinone_pdb\AD25.pdb
REMARK  6 active torsions:
REMARK  status: ('A' for Active; 'I' for Inactive)
REMARK    1  A    between atoms: O_3  and  C_16
REMARK    2  A    between atoms: O_4  and  C_17
REMARK    3  A    between atoms: O_5  and  C_22
REMARK    4  A    between atoms: O_5  and  C_23
REMARK    5  A    between atoms: C_9  and  C_18
REMARK    6  A    between atoms: C_14  and  C_22
REMARK                            x       y       z     vdW  Elec       q    Type
REMARK                         _______ _______ _______ _____ _____    ______ ____
ROOT
ATOM      1  O   UNL     1      18.599  71.468   0.164  0.00  0.00    -0.286 OA
ATOM      2  C   UNL     1      18.184  70.975   1.205  0.00  0.00    +0.198 C 
ATOM      3  C   UNL     1      17.085  69.988   1.165  0.00  0.00    +0.074 A 
ATOM      4  C   UNL     1      16.527  69.625  -0.066  0.00  0.00    +0.128 A 
ATOM      5  C   UNL     1      15.490  68.693  -0.114  0.00  0.00    +0.046 A 
ATOM      6  C   UNL     1      15.007  68.124   1.063  0.00  0.00    +0.004 A 
ATOM      7  C   UNL     1      15.561  68.483   2.292  0.00  0.00    +0.012 A 
ATOM     10  C   UNL     1      16.602  69.417   2.344  0.00  0.00    +0.037 A 
ATOM     11  C   UNL     1      17.182  69.792   3.650  0.00  0.00    +0.195 C 
ATOM     12  C   UNL     1      18.281  70.779   3.690  0.00  0.00    +0.037 A 
ATOM     13  C   UNL     1      18.841  71.141   4.921  0.00  0.00    +0.058 A 
ATOM     14  C   UNL     1      19.879  72.072   4.968  0.00  0.00    +0.132 A 
ATOM     15  C   UNL     1      20.360  72.641   3.791  0.00  0.00    +0.104 A 
ATOM     20  C   UNL     1      19.806  72.283   2.563  0.00  0.00    -0.021 A 
ATOM     21  C   UNL     1      20.376  72.938   1.340  0.00  0.00    +0.045 C 
ATOM     24  O   UNL     1      16.759  69.290   4.685  0.00  0.00    -0.287 OA
ATOM     25  C   UNL     1      18.764  71.350   2.511  0.00  0.00    +0.037 A 
ENDROOT
BRANCH   4   8
ATOM      8  O   UNL     1      16.948  70.141  -1.257  0.00  0.00    -0.506 OA
ATOM      9  H   UNL     1      17.900  70.313  -1.241  0.00  0.00    +0.292 HD
ENDBRANCH   4   8
BRANCH  15  16
ATOM     16  C   UNL     1      21.448  73.613   3.865  0.00  0.00    +0.343 C 
ATOM     17  O   UNL     1      21.303  74.831   3.722  0.00  0.00    -0.245 OA
BRANCH  16  18
ATOM     18  O   UNL     1      22.644  73.002   4.115  0.00  0.00    -0.464 OA
ATOM     19  C   UNL     1      23.534  73.676   5.012  0.00  0.00    +0.280 C 
ENDBRANCH  16  18
ENDBRANCH  15  16
BRANCH  14  22
ATOM     22  O   UNL     1      20.408  72.408   6.180  0.00  0.00    -0.506 OA
ATOM     23  H   UNL     1      19.846  73.083   6.597  0.00  0.00    +0.292 HD
ENDBRANCH  14  22
TORSDOF 4
ENDMDL
MODEL 6
REMARK VINA RESULT:    -6.232     28.610     30.386
REMARK INTER + INTRA:          -7.649
REMARK INTER:                  -7.348
REMARK INTRA:                  -0.301
REMARK UNBOUND:                -0.324
REMARK  Name = C:\Users\HP\Downloads\Anthraquinone_pdb\AD25.pdb
REMARK  6 active torsions:
REMARK  status: ('A' for Active; 'I' for Inactive)
REMARK    1  A    between atoms: O_3  and  C_16
REMARK    2  A    between atoms: O_4  and  C_17
REMARK    3  A    between atoms: O_5  and  C_22
REMARK    4  A    between atoms: O_5  and  C_23
REMARK    5  A    between atoms: C_9  and  C_18
REMARK    6  A    between atoms: C_14  and  C_22
REMARK                            x       y       z     vdW  Elec       q    Type
REMARK                         _______ _______ _______ _____ _____    ______ ____
ROOT
ATOM      1  O   UNL     1      18.108  70.105   4.546  0.00  0.00    -0.286 OA
ATOM      2  C   UNL     1      18.525  70.840   3.660  0.00  0.00    +0.198 C 
ATOM      3  C   UNL     1      19.578  71.832   3.961  0.00  0.00    +0.074 A 
ATOM      4  C   UNL     1      20.091  71.922   5.260  0.00  0.00    +0.128 A 
ATOM      5  C   UNL     1      21.086  72.855   5.554  0.00  0.00    +0.046 A 
ATOM      6  C   UNL     1      21.570  73.697   4.555  0.00  0.00    +0.004 A 
ATOM      7  C   UNL     1      21.063  73.610   3.259  0.00  0.00    +0.012 A 
ATOM     10  C   UNL     1      20.064  72.675   2.961  0.00  0.00    +0.037 A 
ATOM     11  C   UNL     1      19.532  72.590   1.585  0.00  0.00    +0.195 C 
ATOM     12  C   UNL     1      18.478  71.599   1.284  0.00  0.00    +0.037 A 
ATOM     13  C   UNL     1      17.967  71.507  -0.016  0.00  0.00    +0.058 A 
ATOM     14  C   UNL     1      16.972  70.573  -0.309  0.00  0.00    +0.132 A 
ATOM     15  C   UNL     1      16.487  69.732   0.690  0.00  0.00    +0.104 A 
ATOM     20  C   UNL     1      16.994  69.820   1.986  0.00  0.00    -0.021 A 
ATOM     21  C   UNL     1      16.424  68.881   3.007  0.00  0.00    +0.045 C 
ATOM     24  O   UNL     1      19.958  73.330   0.707  0.00  0.00    -0.287 OA
ATOM     25  C   UNL     1      17.993  70.755   2.284  0.00  0.00    +0.037 A 
ENDROOT
BRANCH   4   8
ATOM      8  O   UNL     1      19.664  71.132   6.287  0.00  0.00    -0.506 OA
ATOM      9  H   UNL     1      19.129  71.639   6.914  0.00  0.00    +0.292 HD
ENDBRANCH   4   8
BRANCH  15  16
ATOM     16  C   UNL     1      15.446  68.761   0.359  0.00  0.00    +0.343 C 
ATOM     17  O   UNL     1      14.244  68.928   0.586  0.00  0.00    -0.245 OA
BRANCH  16  18
ATOM     18  O   UNL     1      15.974  67.650  -0.234  0.00  0.00    -0.464 OA
ATOM     19  C   UNL     1      15.083  66.868  -1.037  0.00  0.00    +0.280 C 
ENDBRANCH  16  18
ENDBRANCH  15  16
BRANCH  14  22
ATOM     22  O   UNL     1      16.490  70.502  -1.583  0.00  0.00    -0.506 OA
ATOM     23  H   UNL     1      15.701  71.067  -1.658  0.00  0.00    +0.292 HD
ENDBRANCH  14  22
TORSDOF 4
ENDMDL
MODEL 7
REMARK VINA RESULT:    -6.146     28.333     29.995
REMARK INTER + INTRA:          -7.548
REMARK INTER:                  -7.245
REMARK INTRA:                  -0.303
REMARK UNBOUND:                -0.324
REMARK  Name = C:\Users\HP\Downloads\Anthraquinone_pdb\AD25.pdb
REMARK  6 active torsions:
REMARK  status: ('A' for Active; 'I' for Inactive)
REMARK    1  A    between atoms: O_3  and  C_16
REMARK    2  A    between atoms: O_4  and  C_17
REMARK    3  A    between atoms: O_5  and  C_22
REMARK    4  A    between atoms: O_5  and  C_23
REMARK    5  A    between atoms: C_9  and  C_18
REMARK    6  A    between atoms: C_14  and  C_22
REMARK                            x       y       z     vdW  Elec       q    Type
REMARK                         _______ _______ _______ _____ _____    ______ ____
ROOT
ATOM      1  O   UNL     1      19.176  72.533   0.886  0.00  0.00    -0.286 OA
ATOM      2  C   UNL     1      19.055  72.043   2.001  0.00  0.00    +0.198 C 
ATOM      3  C   UNL     1      19.898  72.528   3.114  0.00  0.00    +0.074 A 
ATOM      4  C   UNL     1      20.831  73.546   2.882  0.00  0.00    +0.128 A 
ATOM      5  C   UNL     1      21.630  74.011   3.925  0.00  0.00    +0.046 A 
ATOM      6  C   UNL     1      21.502  73.463   5.201  0.00  0.00    +0.004 A 
ATOM      7  C   UNL     1      20.574  72.449   5.437  0.00  0.00    +0.012 A 
ATOM     10  C   UNL     1      19.770  71.980   4.391  0.00  0.00    +0.037 A 
ATOM     11  C   UNL     1      18.789  70.905   4.651  0.00  0.00    +0.195 C 
ATOM     12  C   UNL     1      17.946  70.420   3.539  0.00  0.00    +0.037 A 
ATOM     13  C   UNL     1      17.012  69.404   3.771  0.00  0.00    +0.058 A 
ATOM     14  C   UNL     1      16.212  68.940   2.727  0.00  0.00    +0.132 A 
ATOM     15  C   UNL     1      16.340  69.488   1.452  0.00  0.00    +0.104 A 
ATOM     20  C   UNL     1      17.269  70.500   1.216  0.00  0.00    -0.021 A 
ATOM     21  C   UNL     1      17.350  71.040  -0.181  0.00  0.00    +0.045 C 
ATOM     24  O   UNL     1      18.676  70.425   5.772  0.00  0.00    -0.287 OA
ATOM     25  C   UNL     1      18.074  70.969   2.261  0.00  0.00    +0.037 A 
ENDROOT
BRANCH   4   8
ATOM      8  O   UNL     1      21.010  74.127   1.661  0.00  0.00    -0.506 OA
ATOM      9  H   UNL     1      20.355  73.804   1.025  0.00  0.00    +0.292 HD
ENDBRANCH   4   8
BRANCH  15  16
ATOM     16  C   UNL     1      15.491  68.986   0.374  0.00  0.00    +0.343 C 
ATOM     17  O   UNL     1      14.463  69.547  -0.017  0.00  0.00    -0.245 OA
BRANCH  16  18
ATOM     18  O   UNL     1      15.982  67.822  -0.145  0.00  0.00    -0.464 OA
ATOM     19  C   UNL     1      15.041  66.963  -0.798  0.00  0.00    +0.280 C 
ENDBRANCH  16  18
ENDBRANCH  15  16
BRANCH  14  22
ATOM     22  O   UNL     1      15.309  67.949   2.979  0.00  0.00    -0.506 OA
ATOM     23  H   UNL     1      15.609  67.128   2.553  0.00  0.00    +0.292 HD
ENDBRANCH  14  22
TORSDOF 4
ENDMDL
MODEL 8
REMARK VINA RESULT:    -6.130     22.707     23.745
REMARK INTER + INTRA:          -7.530
REMARK INTER:                  -7.240
REMARK INTRA:                  -0.290
REMARK UNBOUND:                -0.324
REMARK  Name = C:\Users\HP\Downloads\Anthraquinone_pdb\AD25.pdb
REMARK  6 active torsions:
REMARK  status: ('A' for Active; 'I' for Inactive)
REMARK    1  A    between atoms: O_3  and  C_16
REMARK    2  A    between atoms: O_4  and  C_17
REMARK    3  A    between atoms: O_5  and  C_22
REMARK    4  A    between atoms: O_5  and  C_23
REMARK    5  A    between atoms: C_9  and  C_18
REMARK    6  A    between atoms: C_14  and  C_22
REMARK                            x       y       z     vdW  Elec       q    Type
REMARK                         _______ _______ _______ _____ _____    ______ ____
ROOT
ATOM      1  O   UNL     1      25.635  50.270   6.116  0.00  0.00    -0.286 OA
ATOM      2  C   UNL     1      24.652  49.779   6.656  0.00  0.00    +0.198 C 
ATOM      3  C   UNL     1      23.304  50.296   6.342  0.00  0.00    +0.074 A 
ATOM      4  C   UNL     1      23.162  51.345   5.427  0.00  0.00    +0.128 A 
ATOM      5  C   UNL     1      21.893  51.839   5.123  0.00  0.00    +0.046 A 
ATOM      6  C   UNL     1      20.766  51.288   5.731  0.00  0.00    +0.004 A 
ATOM      7  C   UNL     1      20.902  50.242   6.643  0.00  0.00    +0.012 A 
ATOM     10  C   UNL     1      22.174  49.744   6.950  0.00  0.00    +0.037 A 
ATOM     11  C   UNL     1      22.310  48.636   7.918  0.00  0.00    +0.195 C 
ATOM     12  C   UNL     1      23.658  48.119   8.232  0.00  0.00    +0.037 A 
ATOM     13  C   UNL     1      23.800  47.069   9.146  0.00  0.00    +0.058 A 
ATOM     14  C   UNL     1      25.069  46.575   9.449  0.00  0.00    +0.132 A 
ATOM     15  C   UNL     1      26.196  47.125   8.842  0.00  0.00    +0.104 A 
ATOM     20  C   UNL     1      26.059  48.172   7.931  0.00  0.00    -0.021 A 
ATOM     21  C   UNL     1      27.317  48.713   7.319  0.00  0.00    +0.045 C 
ATOM     24  O   UNL     1      21.319  48.152   8.450  0.00  0.00    -0.287 OA
ATOM     25  C   UNL     1      24.788  48.671   7.624  0.00  0.00    +0.037 A 
ENDROOT
BRANCH   4   8
ATOM      8  O   UNL     1      24.220  51.932   4.796  0.00  0.00    -0.506 OA
ATOM      9  H   UNL     1      23.959  52.774   4.397  0.00  0.00    +0.292 HD
ENDBRANCH   4   8
BRANCH  15  16
ATOM     16  C   UNL     1      27.515  46.591   9.174  0.00  0.00    +0.343 C 
ATOM     17  O   UNL     1      28.085  45.703   8.534  0.00  0.00    -0.245 OA
BRANCH  16  18
ATOM     18  O   UNL     1      28.034  47.202  10.280  0.00  0.00    -0.464 OA
ATOM     19  C   UNL     1      29.429  47.523  10.240  0.00  0.00    +0.280 C 
ENDBRANCH  16  18
ENDBRANCH  15  16
BRANCH  14  22
ATOM     22  O   UNL     1      25.181  45.550  10.342  0.00  0.00    -0.506 OA
ATOM     23  H   UNL     1      26.005  45.063  10.168  0.00  0.00    +0.292 HD
ENDBRANCH  14  22
TORSDOF 4
ENDMDL
MODEL 9
REMARK VINA RESULT:    -6.007     22.852     24.749
REMARK INTER + INTRA:          -7.385
REMARK INTER:                  -7.088
REMARK INTRA:                  -0.297
REMARK UNBOUND:                -0.324
REMARK  Name = C:\Users\HP\Downloads\Anthraquinone_pdb\AD25.pdb
REMARK  6 active torsions:
REMARK  status: ('A' for Active; 'I' for Inactive)
REMARK    1  A    between atoms: O_3  and  C_16
REMARK    2  A    between atoms: O_4  and  C_17
REMARK    3  A    between atoms: O_5  and  C_22
REMARK    4  A    between atoms: O_5  and  C_23
REMARK    5  A    between atoms: C_9  and  C_18
REMARK    6  A    between atoms: C_14  and  C_22
REMARK                            x       y       z     vdW  Elec       q    Type
REMARK                         _______ _______ _______ _____ _____    ______ ____
ROOT
ATOM      1  O   UNL     1       4.398  50.430   7.881  0.00  0.00    -0.286 OA
ATOM      2  C   UNL     1       5.614  50.538   7.979  0.00  0.00    +0.198 C 
ATOM      3  C   UNL     1       6.330  51.553   7.180  0.00  0.00    +0.074 A 
ATOM      4  C   UNL     1       5.611  52.385   6.314  0.00  0.00    +0.128 A 
ATOM      5  C   UNL     1       6.278  53.347   5.556  0.00  0.00    +0.046 A 
ATOM      6  C   UNL     1       7.662  53.481   5.659  0.00  0.00    +0.004 A 
ATOM      7  C   UNL     1       8.383  52.654   6.521  0.00  0.00    +0.012 A 
ATOM     10  C   UNL     1       7.716  51.688   7.283  0.00  0.00    +0.037 A 
ATOM     11  C   UNL     1       8.488  50.816   8.193  0.00  0.00    +0.195 C 
ATOM     12  C   UNL     1       7.772  49.801   8.992  0.00  0.00    +0.037 A 
ATOM     13  C   UNL     1       8.491  48.970   9.859  0.00  0.00    +0.058 A 
ATOM     14  C   UNL     1       7.822  48.009  10.618  0.00  0.00    +0.132 A 
ATOM     15  C   UNL     1       6.439  47.875  10.515  0.00  0.00    +0.104 A 
ATOM     20  C   UNL     1       5.719  48.701   9.652  0.00  0.00    -0.021 A 
ATOM     21  C   UNL     1       4.234  48.498   9.595  0.00  0.00    +0.045 C 
ATOM     24  O   UNL     1       9.704  50.935   8.284  0.00  0.00    -0.287 OA
ATOM     25  C   UNL     1       6.385  49.666   8.889  0.00  0.00    +0.037 A 
ENDROOT
BRANCH   4   8
ATOM      8  O   UNL     1       4.257  52.310   6.162  0.00  0.00    -0.506 OA
ATOM      9  H   UNL     1       3.861  53.194   6.161  0.00  0.00    +0.292 HD
ENDBRANCH   4   8
BRANCH  15  16
ATOM     16  C   UNL     1       5.761  46.862  11.320  0.00  0.00    +0.343 C 
ATOM     17  O   UNL     1       5.372  45.774  10.883  0.00  0.00    -0.245 OA
BRANCH  16  18
ATOM     18  O   UNL     1       5.615  47.272  12.614  0.00  0.00    -0.464 OA
ATOM     19  C   UNL     1       4.504  46.730  13.338  0.00  0.00    +0.280 C 
ENDBRANCH  16  18
ENDBRANCH  15  16
BRANCH  14  22
ATOM     22  O   UNL     1       8.545  47.211  11.456  0.00  0.00    -0.506 OA
ATOM     23  H   UNL     1       8.616  47.642  12.325  0.00  0.00    +0.292 HD
ENDBRANCH  14  22
TORSDOF 4
ENDMDL
