MODEL 1
REMARK VINA RESULT:    -9.371      0.000      0.000
REMARK INTER + INTRA:          -1.519
REMARK INTER:                 -12.932
REMARK INTRA:                  11.413
REMARK UNBOUND:                11.413
REMARK  Name = C:\Users\HP\Downloads\Anthraquinone_pdb\AD27.pdb
REMARK  10 active torsions:
REMARK  status: ('A' for Active; 'I' for Inactive)
REMARK    1  A    between atoms: O_2  and  C_12
REMARK    2  A    between atoms: O_3  and  C_13
REMARK    3  A    between atoms: O_4  and  C_14
REMARK    4  A    between atoms: O_5  and  C_19
REMARK    5  A    between atoms: O_7  and  C_24
REMARK    6  A    between atoms: O_8  and  C_25
REMARK    7  A    between atoms: O_9  and  C_30
REMARK    8  A    between atoms: C_10  and  C_11
REMARK    9  A    between atoms: C_15  and  C_19
REMARK   10  A    between atoms: C_26  and  C_30
REMARK                            x       y       z     vdW  Elec       q    Type
REMARK                         _______ _______ _______ _____ _____    ______ ____
ROOT
ATOM     16  C   UNL     1      18.257  55.317  28.135  0.00  0.00    +0.082 C 
ATOM     17  C   UNL     1      17.766  56.134  28.435  0.00  0.00    -0.023 A 
ATOM     18  C   UNL     1      16.853  56.368  27.992  0.00  0.00    +0.005 A 
ATOM     19  C   UNL     1      16.336  57.219  28.300  0.00  0.00    +0.004 A 
ATOM     20  C   UNL     1      16.739  57.823  29.046  0.00  0.00    +0.046 A 
ATOM     21  C   UNL     1      17.654  57.570  29.474  0.00  0.00    +0.128 A 
ATOM     24  C   UNL     1      18.154  56.715  29.151  0.00  0.00    +0.068 A 
ATOM     25  C   UNL     1      19.032  56.478  29.567  0.00  0.00    +0.201 C 
ATOM     26  C   UNL     1      19.522  55.660  29.267  0.00  0.00    +0.068 A 
ATOM     27  C   UNL     1      20.436  55.426  29.709  0.00  0.00    +0.128 A 
ATOM     28  C   UNL     1      20.953  54.576  29.401  0.00  0.00    +0.052 A 
ATOM     29  C   UNL     1      20.550  53.971  28.655  0.00  0.00    -0.018 A 
ATOM     33  C   UNL     1      19.635  54.225  28.227  0.00  0.00    +0.011 A 
ATOM     36  O   UNL     1      19.419  57.059  30.284  0.00  0.00    -0.286 OA
ATOM     37  C   UNL     1      19.135  55.080  28.551  0.00  0.00    -0.023 A 
ENDROOT
BRANCH  16  15
ATOM      1  O   UNL     1      18.045  54.946  26.456  0.00  0.00    -0.365 OA
ATOM      2  C   UNL     1      17.658  54.365  25.740  0.00  0.00    +0.175 C 
ATOM      6  C   UNL     1      17.096  53.575  25.986  0.00  0.00    +0.176 C 
ATOM      7  C   UNL     1      16.922  53.365  26.948  0.00  0.00    +0.176 C 
ATOM      8  C   UNL     1      17.309  53.946  27.664  0.00  0.00    +0.175 C 
ATOM     15  C   UNL     1      17.870  54.736  27.418  0.00  0.00    +0.162 C 
BRANCH   8   9
ATOM      9  O   UNL     1      17.134  53.737  28.626  0.00  0.00    -0.387 OA
ATOM     10  H   UNL     1      16.784  54.117  28.968  0.00  0.00    +0.210 HD
ENDBRANCH   8   9
BRANCH   7  11
ATOM     11  O   UNL     1      16.360  52.575  27.194  0.00  0.00    -0.386 OA
ATOM     12  H   UNL     1      16.627  52.024  27.291  0.00  0.00    +0.210 HD
ENDBRANCH   7  11
BRANCH   6  13
ATOM     13  O   UNL     1      16.709  52.994  25.270  0.00  0.00    -0.386 OA
ATOM     14  H   UNL     1      16.176  53.154  24.996  0.00  0.00    +0.210 HD
ENDBRANCH   6  13
BRANCH   2   3
ATOM      3  C   UNL     1      17.832  54.574  24.778  0.00  0.00    +0.190 C 
BRANCH   3   4
ATOM      4  O   UNL     1      17.526  55.445  24.392  0.00  0.00    -0.392 OA
ATOM      5  H   UNL     1      17.370  55.913  24.768  0.00  0.00    +0.210 HD
ENDBRANCH   3   4
ENDBRANCH   2   3
ENDBRANCH  16  15
BRANCH  21  22
ATOM     22  O   UNL     1      18.050  58.143  30.192  0.00  0.00    -0.506 OA
ATOM     23  H   UNL     1      18.592  58.430  30.094  0.00  0.00    +0.292 HD
ENDBRANCH  21  22
BRANCH  27  34
ATOM     34  O   UNL     1      20.813  56.014  30.424  0.00  0.00    -0.506 OA
ATOM     35  H   UNL     1      20.791  55.833  31.017  0.00  0.00    +0.292 HD
ENDBRANCH  27  34
BRANCH  29  30
ATOM     30  C   UNL     1      21.038  53.153  28.353  0.00  0.00    +0.191 C 
BRANCH  30  31
ATOM     31  O   UNL     1      21.108  52.359  28.957  0.00  0.00    -0.390 OA
ATOM     32  H   UNL     1      21.645  52.053  29.006  0.00  0.00    +0.210 HD
ENDBRANCH  30  31
ENDBRANCH  29  30
TORSDOF 10
ENDMDL
MODEL 2
REMARK VINA RESULT:    -9.047      0.790      3.215
REMARK INTER + INTRA:          -1.072
REMARK INTER:                 -12.507
REMARK INTRA:                  11.436
REMARK UNBOUND:                11.413
REMARK  Name = C:\Users\HP\Downloads\Anthraquinone_pdb\AD27.pdb
REMARK  10 active torsions:
REMARK  status: ('A' for Active; 'I' for Inactive)
REMARK    1  A    between atoms: O_2  and  C_12
REMARK    2  A    between atoms: O_3  and  C_13
REMARK    3  A    between atoms: O_4  and  C_14
REMARK    4  A    between atoms: O_5  and  C_19
REMARK    5  A    between atoms: O_7  and  C_24
REMARK    6  A    between atoms: O_8  and  C_25
REMARK    7  A    between atoms: O_9  and  C_30
REMARK    8  A    between atoms: C_10  and  C_11
REMARK    9  A    between atoms: C_15  and  C_19
REMARK   10  A    between atoms: C_26  and  C_30
REMARK                            x       y       z     vdW  Elec       q    Type
REMARK                         _______ _______ _______ _____ _____    ______ ____
ROOT
ATOM     16  C   UNL     1      18.530  55.184  28.138  0.00  0.00    +0.082 C 
ATOM     17  C   UNL     1      19.394  54.844  28.509  0.00  0.00    -0.023 A 
ATOM     18  C   UNL     1      19.783  53.948  28.147  0.00  0.00    +0.005 A 
ATOM     19  C   UNL     1      20.683  53.588  28.529  0.00  0.00    +0.004 A 
ATOM     20  C   UNL     1      21.181  54.128  29.267  0.00  0.00    +0.046 A 
ATOM     21  C   UNL     1      20.773  55.022  29.613  0.00  0.00    +0.128 A 
ATOM     24  C   UNL     1      19.872  55.363  29.217  0.00  0.00    +0.068 A 
ATOM     25  C   UNL     1      19.486  56.222  29.555  0.00  0.00    +0.201 C 
ATOM     26  C   UNL     1      18.622  56.562  29.184  0.00  0.00    +0.068 A 
ATOM     27  C   UNL     1      18.232  57.457  29.545  0.00  0.00    +0.128 A 
ATOM     28  C   UNL     1      17.333  57.817  29.163  0.00  0.00    +0.052 A 
ATOM     29  C   UNL     1      16.835  57.277  28.425  0.00  0.00    -0.018 A 
ATOM     33  C   UNL     1      17.243  56.384  28.078  0.00  0.00    +0.011 A 
ATOM     36  O   UNL     1      19.964  56.740  30.264  0.00  0.00    -0.286 OA
ATOM     37  C   UNL     1      18.144  56.043  28.475  0.00  0.00    -0.023 A 
ENDROOT
BRANCH  16  15
ATOM      1  O   UNL     1      18.188  54.893  26.465  0.00  0.00    -0.365 OA
ATOM      2  C   UNL     1      17.709  54.375  25.756  0.00  0.00    +0.175 C 
ATOM      6  C   UNL     1      17.095  53.628  26.011  0.00  0.00    +0.176 C 
ATOM      7  C   UNL     1      16.960  53.400  26.976  0.00  0.00    +0.176 C 
ATOM      8  C   UNL     1      17.438  53.919  27.684  0.00  0.00    +0.175 C 
ATOM     15  C   UNL     1      18.052  54.665  27.429  0.00  0.00    +0.162 C 
BRANCH   8   9
ATOM      9  O   UNL     1      17.302  53.691  28.648  0.00  0.00    -0.387 OA
ATOM     10  H   UNL     1      16.730  53.689  28.889  0.00  0.00    +0.210 HD
ENDBRANCH   8   9
BRANCH   7  11
ATOM     11  O   UNL     1      16.346  52.653  27.231  0.00  0.00    -0.386 OA
ATOM     12  H   UNL     1      15.868  52.761  27.611  0.00  0.00    +0.210 HD
ENDBRANCH   7  11
BRANCH   6  13
ATOM     13  O   UNL     1      16.617  53.109  25.303  0.00  0.00    -0.386 OA
ATOM     14  H   UNL     1      16.481  53.378  24.761  0.00  0.00    +0.210 HD
ENDBRANCH   6  13
BRANCH   2   3
ATOM      3  C   UNL     1      17.845  54.603  24.792  0.00  0.00    +0.190 C 
BRANCH   3   4
ATOM      4  O   UNL     1      17.563  55.497  24.445  0.00  0.00    -0.392 OA
ATOM      5  H   UNL     1      17.127  55.822  24.743  0.00  0.00    +0.210 HD
ENDBRANCH   3   4
ENDBRANCH   2   3
ENDBRANCH  16  15
BRANCH  21  22
ATOM     22  O   UNL     1      21.242  55.549  30.322  0.00  0.00    -0.506 OA
ATOM     23  H   UNL     1      21.341  56.156  30.242  0.00  0.00    +0.292 HD
ENDBRANCH  21  22
BRANCH  27  34
ATOM     34  O   UNL     1      18.719  57.968  30.254  0.00  0.00    -0.506 OA
ATOM     35  H   UNL     1      18.832  58.573  30.177  0.00  0.00    +0.292 HD
ENDBRANCH  27  34
BRANCH  29  30
ATOM     30  C   UNL     1      15.971  57.614  28.052  0.00  0.00    +0.191 C 
BRANCH  30  31
ATOM     31  O   UNL     1      15.934  57.969  27.118  0.00  0.00    -0.390 OA
ATOM     32  H   UNL     1      15.616  58.488  26.995  0.00  0.00    +0.210 HD
ENDBRANCH  30  31
ENDBRANCH  29  30
TORSDOF 10
ENDMDL
MODEL 3
REMARK VINA RESULT:    -8.655      7.853      9.030
REMARK INTER + INTRA:          -0.531
REMARK INTER:                 -11.848
REMARK INTRA:                  11.318
REMARK UNBOUND:                11.413
REMARK  Name = C:\Users\HP\Downloads\Anthraquinone_pdb\AD27.pdb
REMARK  10 active torsions:
REMARK  status: ('A' for Active; 'I' for Inactive)
REMARK    1  A    between atoms: O_2  and  C_12
REMARK    2  A    between atoms: O_3  and  C_13
REMARK    3  A    between atoms: O_4  and  C_14
REMARK    4  A    between atoms: O_5  and  C_19
REMARK    5  A    between atoms: O_7  and  C_24
REMARK    6  A    between atoms: O_8  and  C_25
REMARK    7  A    between atoms: O_9  and  C_30
REMARK    8  A    between atoms: C_10  and  C_11
REMARK    9  A    between atoms: C_15  and  C_19
REMARK   10  A    between atoms: C_26  and  C_30
REMARK                            x       y       z     vdW  Elec       q    Type
REMARK                         _______ _______ _______ _____ _____    ______ ____
ROOT
ATOM     16  C   UNL     1      23.694  58.984  23.569  0.00  0.00    +0.082 C 
ATOM     17  C   UNL     1      23.128  58.161  23.516  0.00  0.00    -0.023 A 
ATOM     18  C   UNL     1      22.094  58.250  23.611  0.00  0.00    +0.005 A 
ATOM     19  C   UNL     1      21.498  57.398  23.557  0.00  0.00    +0.004 A 
ATOM     20  C   UNL     1      21.943  56.468  23.409  0.00  0.00    +0.046 A 
ATOM     21  C   UNL     1      22.979  56.403  23.317  0.00  0.00    +0.128 A 
ATOM     24  C   UNL     1      23.555  57.269  23.374  0.00  0.00    +0.068 A 
ATOM     25  C   UNL     1      24.549  57.199  23.285  0.00  0.00    +0.201 C 
ATOM     26  C   UNL     1      25.115  58.021  23.338  0.00  0.00    +0.068 A 
ATOM     27  C   UNL     1      26.148  57.933  23.244  0.00  0.00    +0.128 A 
ATOM     28  C   UNL     1      26.744  58.786  23.298  0.00  0.00    +0.052 A 
ATOM     29  C   UNL     1      26.299  59.715  23.445  0.00  0.00    -0.018 A 
ATOM     33  C   UNL     1      25.263  59.780  23.537  0.00  0.00    +0.011 A 
ATOM     36  O   UNL     1      24.977  56.306  23.143  0.00  0.00    -0.286 OA
ATOM     37  C   UNL     1      24.687  58.914  23.480  0.00  0.00    -0.023 A 
ENDROOT
BRANCH  16  15
ATOM      1  O   UNL     1      22.984  60.427  22.925  0.00  0.00    -0.365 OA
ATOM      2  C   UNL     1      22.556  61.320  23.067  0.00  0.00    +0.175 C 
ATOM      6  C   UNL     1      22.411  61.662  23.995  0.00  0.00    +0.176 C 
ATOM      7  C   UNL     1      22.692  61.112  24.781  0.00  0.00    +0.176 C 
ATOM      8  C   UNL     1      23.120  60.219  24.639  0.00  0.00    +0.175 C 
ATOM     15  C   UNL     1      23.266  59.877  23.711  0.00  0.00    +0.162 C 
BRANCH   8   9
ATOM      9  O   UNL     1      23.402  59.669  25.425  0.00  0.00    -0.387 OA
ATOM     10  H   UNL     1      23.297  59.875  26.001  0.00  0.00    +0.210 HD
ENDBRANCH   8   9
BRANCH   7  11
ATOM     11  O   UNL     1      22.547  61.455  25.709  0.00  0.00    -0.386 OA
ATOM     12  H   UNL     1      22.494  61.057  26.182  0.00  0.00    +0.210 HD
ENDBRANCH   7  11
BRANCH   6  13
ATOM     13  O   UNL     1      21.983  62.555  24.137  0.00  0.00    -0.386 OA
ATOM     14  H   UNL     1      22.074  62.861  24.668  0.00  0.00    +0.210 HD
ENDBRANCH   6  13
BRANCH   2   3
ATOM      3  C   UNL     1      22.275  61.870  22.281  0.00  0.00    +0.190 C 
BRANCH   3   4
ATOM      4  O   UNL     1      21.688  61.471  21.576  0.00  0.00    -0.392 OA
ATOM      5  H   UNL     1      21.600  61.770  21.040  0.00  0.00    +0.210 HD
ENDBRANCH   3   4
ENDBRANCH   2   3
ENDBRANCH  16  15
BRANCH  21  22
ATOM     22  O   UNL     1      23.417  55.516  23.175  0.00  0.00    -0.506 OA
ATOM     23  H   UNL     1      23.677  55.219  23.654  0.00  0.00    +0.292 HD
ENDBRANCH  21  22
BRANCH  27  34
ATOM     34  O   UNL     1      26.565  57.035  23.102  0.00  0.00    -0.506 OA
ATOM     35  H   UNL     1      26.809  56.728  23.583  0.00  0.00    +0.292 HD
ENDBRANCH  27  34
BRANCH  29  30
ATOM     30  C   UNL     1      26.862  60.540  23.499  0.00  0.00    +0.191 C 
BRANCH  30  31
ATOM     31  O   UNL     1      26.674  61.314  22.895  0.00  0.00    -0.390 OA
ATOM     32  H   UNL     1      26.268  61.254  22.429  0.00  0.00    +0.210 HD
ENDBRANCH  30  31
ENDBRANCH  29  30
TORSDOF 10
ENDMDL
MODEL 4
REMARK VINA RESULT:    -8.643      1.986      3.599
REMARK INTER + INTRA:          -0.514
REMARK INTER:                 -11.858
REMARK INTRA:                  11.344
REMARK UNBOUND:                11.413
REMARK  Name = C:\Users\HP\Downloads\Anthraquinone_pdb\AD27.pdb
REMARK  10 active torsions:
REMARK  status: ('A' for Active; 'I' for Inactive)
REMARK    1  A    between atoms: O_2  and  C_12
REMARK    2  A    between atoms: O_3  and  C_13
REMARK    3  A    between atoms: O_4  and  C_14
REMARK    4  A    between atoms: O_5  and  C_19
REMARK    5  A    between atoms: O_7  and  C_24
REMARK    6  A    between atoms: O_8  and  C_25
REMARK    7  A    between atoms: O_9  and  C_30
REMARK    8  A    between atoms: C_10  and  C_11
REMARK    9  A    between atoms: C_15  and  C_19
REMARK   10  A    between atoms: C_26  and  C_30
REMARK                            x       y       z     vdW  Elec       q    Type
REMARK                         _______ _______ _______ _____ _____    ______ ____
ROOT
ATOM     16  C   UNL     1      19.062  56.103  27.757  0.00  0.00    +0.082 C 
ATOM     17  C   UNL     1      19.145  56.820  28.450  0.00  0.00    -0.023 A 
ATOM     18  C   UNL     1      20.061  57.298  28.577  0.00  0.00    +0.005 A 
ATOM     19  C   UNL     1      20.155  58.046  29.296  0.00  0.00    +0.004 A 
ATOM     20  C   UNL     1      19.332  58.304  29.878  0.00  0.00    +0.046 A 
ATOM     21  C   UNL     1      18.425  57.812  29.734  0.00  0.00    +0.128 A 
ATOM     24  C   UNL     1      18.354  57.068  29.009  0.00  0.00    +0.068 A 
ATOM     25  C   UNL     1      17.480  56.600  28.876  0.00  0.00    +0.201 C 
ATOM     26  C   UNL     1      17.398  55.883  28.183  0.00  0.00    +0.068 A 
ATOM     27  C   UNL     1      16.482  55.405  28.056  0.00  0.00    +0.128 A 
ATOM     28  C   UNL     1      16.388  54.657  27.336  0.00  0.00    +0.052 A 
ATOM     29  C   UNL     1      17.211  54.399  26.754  0.00  0.00    -0.018 A 
ATOM     33  C   UNL     1      18.118  54.891  26.899  0.00  0.00    +0.011 A 
ATOM     36  O   UNL     1      16.689  56.849  29.435  0.00  0.00    -0.286 OA
ATOM     37  C   UNL     1      18.188  55.635  27.624  0.00  0.00    -0.023 A 
ENDROOT
BRANCH  16  15
ATOM      1  O   UNL     1      20.007  56.309  26.321  0.00  0.00    -0.365 OA
ATOM      2  C   UNL     1      20.798  56.060  25.761  0.00  0.00    +0.175 C 
ATOM      6  C   UNL     1      21.434  55.357  26.079  0.00  0.00    +0.176 C 
ATOM      7  C   UNL     1      21.280  54.903  26.957  0.00  0.00    +0.176 C 
ATOM      8  C   UNL     1      20.489  55.152  27.516  0.00  0.00    +0.175 C 
ATOM     15  C   UNL     1      19.853  55.855  27.198  0.00  0.00    +0.162 C 
BRANCH   8   9
ATOM      9  O   UNL     1      20.334  54.697  28.393  0.00  0.00    -0.387 OA
ATOM     10  H   UNL     1      19.981  54.968  28.825  0.00  0.00    +0.210 HD
ENDBRANCH   8   9
BRANCH   7  11
ATOM     11  O   UNL     1      21.916  54.200  27.275  0.00  0.00    -0.386 OA
ATOM     12  H   UNL     1      22.063  53.725  26.905  0.00  0.00    +0.210 HD
ENDBRANCH   7  11
BRANCH   6  13
ATOM     13  O   UNL     1      22.225  55.109  25.520  0.00  0.00    -0.386 OA
ATOM     14  H   UNL     1      22.399  55.473  25.049  0.00  0.00    +0.210 HD
ENDBRANCH   6  13
BRANCH   2   3
ATOM      3  C   UNL     1      20.953  56.515  24.884  0.00  0.00    +0.190 C 
BRANCH   3   4
ATOM      4  O   UNL     1      20.175  56.768  24.308  0.00  0.00    -0.392 OA
ATOM      5  H   UNL     1      19.854  56.329  24.010  0.00  0.00    +0.210 HD
ENDBRANCH   3   4
ENDBRANCH   2   3
ENDBRANCH  16  15
BRANCH  21  22
ATOM     22  O   UNL     1      17.628  58.053  30.288  0.00  0.00    -0.506 OA
ATOM     23  H   UNL     1      17.307  58.569  30.161  0.00  0.00    +0.292 HD
ENDBRANCH  21  22
BRANCH  27  34
ATOM     34  O   UNL     1      15.697  55.661  28.621  0.00  0.00    -0.506 OA
ATOM     35  H   UNL     1      15.551  56.260  28.693  0.00  0.00    +0.292 HD
ENDBRANCH  27  34
BRANCH  29  30
ATOM     30  C   UNL     1      17.132  53.683  26.061  0.00  0.00    +0.191 C 
BRANCH  30  31
ATOM     31  O   UNL     1      16.784  53.904  25.150  0.00  0.00    -0.390 OA
ATOM     32  H   UNL     1      17.094  54.300  24.787  0.00  0.00    +0.210 HD
ENDBRANCH  30  31
ENDBRANCH  29  30
TORSDOF 10
ENDMDL
MODEL 5
REMARK VINA RESULT:    -8.398      2.163      4.537
REMARK INTER + INTRA:          -0.176
REMARK INTER:                 -11.451
REMARK INTRA:                  11.276
REMARK UNBOUND:                11.413
REMARK  Name = C:\Users\HP\Downloads\Anthraquinone_pdb\AD27.pdb
REMARK  10 active torsions:
REMARK  status: ('A' for Active; 'I' for Inactive)
REMARK    1  A    between atoms: O_2  and  C_12
REMARK    2  A    between atoms: O_3  and  C_13
REMARK    3  A    between atoms: O_4  and  C_14
REMARK    4  A    between atoms: O_5  and  C_19
REMARK    5  A    between atoms: O_7  and  C_24
REMARK    6  A    between atoms: O_8  and  C_25
REMARK    7  A    between atoms: O_9  and  C_30
REMARK    8  A    between atoms: C_10  and  C_11
REMARK    9  A    between atoms: C_15  and  C_19
REMARK   10  A    between atoms: C_26  and  C_30
REMARK                            x       y       z     vdW  Elec       q    Type
REMARK                         _______ _______ _______ _____ _____    ______ ____
ROOT
ATOM     16  C   UNL     1      19.130  55.449  26.976  0.00  0.00    +0.082 C 
ATOM     17  C   UNL     1      18.760  54.804  26.307  0.00  0.00    -0.023 A 
ATOM     18  C   UNL     1      19.391  54.414  25.576  0.00  0.00    +0.005 A 
ATOM     19  C   UNL     1      19.012  53.741  24.876  0.00  0.00    +0.004 A 
ATOM     20  C   UNL     1      18.008  53.468  24.918  0.00  0.00    +0.046 A 
ATOM     21  C   UNL     1      17.396  53.870  25.658  0.00  0.00    +0.128 A 
ATOM     24  C   UNL     1      17.796  54.541  26.347  0.00  0.00    +0.068 A 
ATOM     25  C   UNL     1      17.202  54.923  27.055  0.00  0.00    +0.201 C 
ATOM     26  C   UNL     1      17.572  55.569  27.723  0.00  0.00    +0.068 A 
ATOM     27  C   UNL     1      16.942  55.959  28.455  0.00  0.00    +0.128 A 
ATOM     28  C   UNL     1      17.321  56.631  29.154  0.00  0.00    +0.052 A 
ATOM     29  C   UNL     1      18.325  56.905  29.113  0.00  0.00    -0.018 A 
ATOM     33  C   UNL     1      18.937  56.502  28.373  0.00  0.00    +0.011 A 
ATOM     36  O   UNL     1      16.238  54.661  27.095  0.00  0.00    -0.286 OA
ATOM     37  C   UNL     1      18.536  55.831  27.684  0.00  0.00    -0.023 A 
ENDROOT
BRANCH  16  15
ATOM      1  O   UNL     1      20.376  56.498  26.387  0.00  0.00    -0.365 OA
ATOM      2  C   UNL     1      21.340  56.761  26.347  0.00  0.00    +0.175 C 
ATOM      6  C   UNL     1      22.022  56.237  26.856  0.00  0.00    +0.176 C 
ATOM      7  C   UNL     1      21.741  55.450  27.405  0.00  0.00    +0.176 C 
ATOM      8  C   UNL     1      20.777  55.187  27.445  0.00  0.00    +0.175 C 
ATOM     15  C   UNL     1      20.094  55.711  26.936  0.00  0.00    +0.162 C 
BRANCH   8   9
ATOM      9  O   UNL     1      20.495  54.400  27.994  0.00  0.00    -0.387 OA
ATOM     10  H   UNL     1      20.308  53.879  27.715  0.00  0.00    +0.210 HD
ENDBRANCH   8   9
BRANCH   7  11
ATOM     11  O   UNL     1      22.423  54.925  27.914  0.00  0.00    -0.386 OA
ATOM     12  H   UNL     1      23.008  54.896  27.709  0.00  0.00    +0.210 HD
ENDBRANCH   7  11
BRANCH   6  13
ATOM     13  O   UNL     1      22.986  56.500  26.816  0.00  0.00    -0.386 OA
ATOM     14  H   UNL     1      23.389  56.154  26.495  0.00  0.00    +0.210 HD
ENDBRANCH   6  13
BRANCH   2   3
ATOM      3  C   UNL     1      21.621  57.548  25.798  0.00  0.00    +0.190 C 
BRANCH   3   4
ATOM      4  O   UNL     1      21.195  57.716  24.909  0.00  0.00    -0.392 OA
ATOM      5  H   UNL     1      20.940  57.247  24.594  0.00  0.00    +0.210 HD
ENDBRANCH   3   4
ENDBRANCH   2   3
ENDBRANCH  16  15
BRANCH  21  22
ATOM     22  O   UNL     1      16.430  53.615  25.708  0.00  0.00    -0.506 OA
ATOM     23  H   UNL     1      16.261  53.103  26.015  0.00  0.00    +0.292 HD
ENDBRANCH  21  22
BRANCH  27  34
ATOM     34  O   UNL     1      15.980  55.689  28.485  0.00  0.00    -0.506 OA
ATOM     35  H   UNL     1      15.799  55.229  28.861  0.00  0.00    +0.292 HD
ENDBRANCH  27  34
BRANCH  29  30
ATOM     30  C   UNL     1      18.698  57.550  29.779  0.00  0.00    +0.191 C 
BRANCH  30  31
ATOM     31  O   UNL     1      19.567  57.353  30.234  0.00  0.00    -0.390 OA
ATOM     32  H   UNL     1      19.851  57.793  30.565  0.00  0.00    +0.210 HD
ENDBRANCH  30  31
ENDBRANCH  29  30
TORSDOF 10
ENDMDL
MODEL 6
REMARK VINA RESULT:    -8.338      1.449      3.947
REMARK INTER + INTRA:          -0.093
REMARK INTER:                 -11.405
REMARK INTRA:                  11.312
REMARK UNBOUND:                11.413
REMARK  Name = C:\Users\HP\Downloads\Anthraquinone_pdb\AD27.pdb
REMARK  10 active torsions:
REMARK  status: ('A' for Active; 'I' for Inactive)
REMARK    1  A    between atoms: O_2  and  C_12
REMARK    2  A    between atoms: O_3  and  C_13
REMARK    3  A    between atoms: O_4  and  C_14
REMARK    4  A    between atoms: O_5  and  C_19
REMARK    5  A    between atoms: O_7  and  C_24
REMARK    6  A    between atoms: O_8  and  C_25
REMARK    7  A    between atoms: O_9  and  C_30
REMARK    8  A    between atoms: C_10  and  C_11
REMARK    9  A    between atoms: C_15  and  C_19
REMARK   10  A    between atoms: C_26  and  C_30
REMARK                            x       y       z     vdW  Elec       q    Type
REMARK                         _______ _______ _______ _____ _____    ______ ____
ROOT
ATOM     16  C   UNL     1      19.281  55.262  28.714  0.00  0.00    +0.082 C 
ATOM     17  C   UNL     1      19.625  56.067  29.197  0.00  0.00    -0.023 A 
ATOM     18  C   UNL     1      20.608  56.068  29.543  0.00  0.00    +0.005 A 
ATOM     19  C   UNL     1      20.974  56.903  30.047  0.00  0.00    +0.004 A 
ATOM     20  C   UNL     1      20.353  57.725  30.198  0.00  0.00    +0.046 A 
ATOM     21  C   UNL     1      19.374  57.701  29.843  0.00  0.00    +0.128 A 
ATOM     24  C   UNL     1      19.029  56.856  29.342  0.00  0.00    +0.068 A 
ATOM     25  C   UNL     1      18.088  56.841  29.004  0.00  0.00    +0.201 C 
ATOM     26  C   UNL     1      17.743  56.036  28.521  0.00  0.00    +0.068 A 
ATOM     27  C   UNL     1      16.761  56.034  28.175  0.00  0.00    +0.128 A 
ATOM     28  C   UNL     1      16.395  55.199  27.671  0.00  0.00    +0.052 A 
ATOM     29  C   UNL     1      17.016  54.377  27.520  0.00  0.00    -0.018 A 
ATOM     33  C   UNL     1      17.996  54.401  27.875  0.00  0.00    +0.011 A 
ATOM     36  O   UNL     1      17.491  57.630  29.150  0.00  0.00    -0.286 OA
ATOM     37  C   UNL     1      18.340  55.246  28.376  0.00  0.00    -0.023 A 
ENDROOT
BRANCH  16  15
ATOM      1  O   UNL     1      19.916  53.743  29.251  0.00  0.00    -0.365 OA
ATOM      2  C   UNL     1      20.513  52.954  29.106  0.00  0.00    +0.175 C 
ATOM      6  C   UNL     1      21.071  52.894  28.278  0.00  0.00    +0.176 C 
ATOM      7  C   UNL     1      21.032  53.624  27.596  0.00  0.00    +0.176 C 
ATOM      8  C   UNL     1      20.435  54.413  27.741  0.00  0.00    +0.175 C 
ATOM     15  C   UNL     1      19.878  54.473  28.569  0.00  0.00    +0.162 C 
BRANCH   8   9
ATOM      9  O   UNL     1      20.397  55.143  27.059  0.00  0.00    -0.387 OA
ATOM     10  H   UNL     1      19.866  55.449  26.961  0.00  0.00    +0.210 HD
ENDBRANCH   8   9
BRANCH   7  11
ATOM     11  O   UNL     1      21.590  53.564  26.768  0.00  0.00    -0.386 OA
ATOM     12  H   UNL     1      21.320  53.470  26.218  0.00  0.00    +0.210 HD
ENDBRANCH   7  11
BRANCH   6  13
ATOM     13  O   UNL     1      21.667  52.105  28.133  0.00  0.00    -0.386 OA
ATOM     14  H   UNL     1      22.140  51.998  28.520  0.00  0.00    +0.210 HD
ENDBRANCH   6  13
BRANCH   2   3
ATOM      3  C   UNL     1      20.551  52.224  29.789  0.00  0.00    +0.190 C 
BRANCH   3   4
ATOM      4  O   UNL     1      20.900  52.415  30.706  0.00  0.00    -0.392 OA
ATOM      5  H   UNL     1      20.991  53.001  30.887  0.00  0.00    +0.210 HD
ENDBRANCH   3   4
ENDBRANCH   2   3
ENDBRANCH  16  15
BRANCH  21  22
ATOM     22  O   UNL     1      18.768  58.485  29.983  0.00  0.00    -0.506 OA
ATOM     23  H   UNL     1      18.403  58.509  30.484  0.00  0.00    +0.292 HD
ENDBRANCH  21  22
BRANCH  27  34
ATOM     34  O   UNL     1      16.174  56.829  28.326  0.00  0.00    -0.506 OA
ATOM     35  H   UNL     1      15.799  56.848  28.821  0.00  0.00    +0.292 HD
ENDBRANCH  27  34
BRANCH  29  30
ATOM     30  C   UNL     1      16.675  53.571  27.037  0.00  0.00    +0.191 C 
BRANCH  30  31
ATOM     31  O   UNL     1      16.731  52.669  27.467  0.00  0.00    -0.390 OA
ATOM     32  H   UNL     1      16.298  52.242  27.349  0.00  0.00    +0.210 HD
ENDBRANCH  30  31
ENDBRANCH  29  30
TORSDOF 10
ENDMDL
MODEL 7
REMARK VINA RESULT:    -8.273      1.927      4.995
REMARK INTER + INTRA:          -0.003
REMARK INTER:                 -11.403
REMARK INTRA:                  11.400
REMARK UNBOUND:                11.413
REMARK  Name = C:\Users\HP\Downloads\Anthraquinone_pdb\AD27.pdb
REMARK  10 active torsions:
REMARK  status: ('A' for Active; 'I' for Inactive)
REMARK    1  A    between atoms: O_2  and  C_12
REMARK    2  A    between atoms: O_3  and  C_13
REMARK    3  A    between atoms: O_4  and  C_14
REMARK    4  A    between atoms: O_5  and  C_19
REMARK    5  A    between atoms: O_7  and  C_24
REMARK    6  A    between atoms: O_8  and  C_25
REMARK    7  A    between atoms: O_9  and  C_30
REMARK    8  A    between atoms: C_10  and  C_11
REMARK    9  A    between atoms: C_15  and  C_19
REMARK   10  A    between atoms: C_26  and  C_30
REMARK                            x       y       z     vdW  Elec       q    Type
REMARK                         _______ _______ _______ _____ _____    ______ ____
ROOT
ATOM     16  C   UNL     1      19.977  55.090  27.636  0.00  0.00    +0.082 C 
ATOM     17  C   UNL     1      20.679  55.295  26.953  0.00  0.00    -0.023 A 
ATOM     18  C   UNL     1      21.680  55.126  27.189  0.00  0.00    +0.005 A 
ATOM     19  C   UNL     1      22.416  55.336  26.483  0.00  0.00    +0.004 A 
ATOM     20  C   UNL     1      22.143  55.712  25.552  0.00  0.00    +0.046 A 
ATOM     21  C   UNL     1      21.136  55.873  25.338  0.00  0.00    +0.128 A 
ATOM     24  C   UNL     1      20.417  55.656  26.058  0.00  0.00    +0.068 A 
ATOM     25  C   UNL     1      19.452  55.813  25.846  0.00  0.00    +0.201 C 
ATOM     26  C   UNL     1      18.750  55.609  26.529  0.00  0.00    +0.068 A 
ATOM     27  C   UNL     1      17.750  55.777  26.294  0.00  0.00    +0.128 A 
ATOM     28  C   UNL     1      17.013  55.567  27.000  0.00  0.00    +0.052 A 
ATOM     29  C   UNL     1      17.287  55.191  27.931  0.00  0.00    -0.018 A 
ATOM     33  C   UNL     1      18.293  55.030  28.145  0.00  0.00    +0.011 A 
ATOM     36  O   UNL     1      19.189  56.174  24.952  0.00  0.00    -0.286 OA
ATOM     37  C   UNL     1      19.013  55.247  27.423  0.00  0.00    -0.023 A 
ENDROOT
BRANCH  16  15
ATOM      1  O   UNL     1      20.307  53.741  28.670  0.00  0.00    -0.365 OA
ATOM      2  C   UNL     1      20.570  53.380  29.565  0.00  0.00    +0.175 C 
ATOM      6  C   UNL     1      20.766  54.006  30.320  0.00  0.00    +0.176 C 
ATOM      7  C   UNL     1      20.699  54.994  30.179  0.00  0.00    +0.176 C 
ATOM      8  C   UNL     1      20.436  55.356  29.285  0.00  0.00    +0.175 C 
ATOM     15  C   UNL     1      20.240  54.729  28.530  0.00  0.00    +0.162 C 
BRANCH   8   9
ATOM      9  O   UNL     1      20.369  56.343  29.144  0.00  0.00    -0.387 OA
ATOM     10  H   UNL     1      20.229  56.715  29.621  0.00  0.00    +0.210 HD
ENDBRANCH   8   9
BRANCH   7  11
ATOM     11  O   UNL     1      20.894  55.621  30.934  0.00  0.00    -0.386 OA
ATOM     12  H   UNL     1      21.085  56.198  30.815  0.00  0.00    +0.210 HD
ENDBRANCH   7  11
BRANCH   6  13
ATOM     13  O   UNL     1      21.028  53.645  31.214  0.00  0.00    -0.386 OA
ATOM     14  H   UNL     1      21.612  53.461  31.315  0.00  0.00    +0.210 HD
ENDBRANCH   6  13
BRANCH   2   3
ATOM      3  C   UNL     1      20.637  52.392  29.705  0.00  0.00    +0.190 C 
BRANCH   3   4
ATOM      4  O   UNL     1      21.313  51.860  29.196  0.00  0.00    -0.392 OA
ATOM      5  H   UNL     1      21.130  51.391  28.834  0.00  0.00    +0.210 HD
ENDBRANCH   3   4
ENDBRANCH   2   3
ENDBRANCH  16  15
BRANCH  21  22
ATOM     22  O   UNL     1      20.862  56.234  24.447  0.00  0.00    -0.506 OA
ATOM     23  H   UNL     1      20.379  56.621  24.405  0.00  0.00    +0.292 HD
ENDBRANCH  21  22
BRANCH  27  34
ATOM     34  O   UNL     1      17.499  56.139  25.396  0.00  0.00    -0.506 OA
ATOM     35  H   UNL     1      17.828  55.980  24.895  0.00  0.00    +0.292 HD
ENDBRANCH  27  34
BRANCH  29  30
ATOM     30  C   UNL     1      16.588  54.985  28.615  0.00  0.00    +0.191 C 
BRANCH  30  31
ATOM     31  O   UNL     1      15.976  55.707  28.938  0.00  0.00    -0.390 OA
ATOM     32  H   UNL     1      16.205  56.263  29.090  0.00  0.00    +0.210 HD
ENDBRANCH  30  31
ENDBRANCH  29  30
TORSDOF 10
ENDMDL
MODEL 8
REMARK VINA RESULT:    -8.181     20.308     22.612
REMARK INTER + INTRA:           0.123
REMARK INTER:                 -11.347
REMARK INTRA:                  11.470
REMARK UNBOUND:                11.413
REMARK  Name = C:\Users\HP\Downloads\Anthraquinone_pdb\AD27.pdb
REMARK  10 active torsions:
REMARK  status: ('A' for Active; 'I' for Inactive)
REMARK    1  A    between atoms: O_2  and  C_12
REMARK    2  A    between atoms: O_3  and  C_13
REMARK    3  A    between atoms: O_4  and  C_14
REMARK    4  A    between atoms: O_5  and  C_19
REMARK    5  A    between atoms: O_7  and  C_24
REMARK    6  A    between atoms: O_8  and  C_25
REMARK    7  A    between atoms: O_9  and  C_30
REMARK    8  A    between atoms: C_10  and  C_11
REMARK    9  A    between atoms: C_15  and  C_19
REMARK   10  A    between atoms: C_26  and  C_30
REMARK                            x       y       z     vdW  Elec       q    Type
REMARK                         _______ _______ _______ _____ _____    ______ ____
ROOT
ATOM     16  C   UNL     1      24.311  47.236   8.123  0.00  0.00    +0.082 C 
ATOM     17  C   UNL     1      24.158  46.293   7.830  0.00  0.00    -0.023 A 
ATOM     18  C   UNL     1      24.978  45.663   7.700  0.00  0.00    +0.005 A 
ATOM     19  C   UNL     1      24.827  44.679   7.395  0.00  0.00    +0.004 A 
ATOM     20  C   UNL     1      23.859  44.337   7.224  0.00  0.00    +0.046 A 
ATOM     21  C   UNL     1      23.054  44.984   7.360  0.00  0.00    +0.128 A 
ATOM     24  C   UNL     1      23.228  45.964   7.665  0.00  0.00    +0.068 A 
ATOM     25  C   UNL     1      22.451  46.580   7.794  0.00  0.00    +0.201 C 
ATOM     26  C   UNL     1      22.603  47.524   8.087  0.00  0.00    +0.068 A 
ATOM     27  C   UNL     1      21.784  48.153   8.217  0.00  0.00    +0.128 A 
ATOM     28  C   UNL     1      21.935  49.138   8.522  0.00  0.00    +0.052 A 
ATOM     29  C   UNL     1      22.904  49.480   8.693  0.00  0.00    -0.018 A 
ATOM     33  C   UNL     1      23.709  48.833   8.557  0.00  0.00    +0.011 A 
ATOM     36  O   UNL     1      21.520  46.252   7.630  0.00  0.00    -0.286 OA
ATOM     37  C   UNL     1      23.533  47.852   8.251  0.00  0.00    -0.023 A 
ENDROOT
BRANCH  16  15
ATOM      1  O   UNL     1      25.758  47.994   7.546  0.00  0.00    -0.365 OA
ATOM      2  C   UNL     1      26.688  48.322   7.710  0.00  0.00    +0.175 C 
ATOM      6  C   UNL     1      27.102  48.221   8.615  0.00  0.00    +0.176 C 
ATOM      7  C   UNL     1      26.585  47.792   9.356  0.00  0.00    +0.176 C 
ATOM      8  C   UNL     1      25.654  47.464   9.192  0.00  0.00    +0.175 C 
ATOM     15  C   UNL     1      25.241  47.565   8.287  0.00  0.00    +0.162 C 
BRANCH   8   9
ATOM      9  O   UNL     1      25.137  47.035   9.933  0.00  0.00    -0.387 OA
ATOM     10  H   UNL     1      25.317  46.486  10.159  0.00  0.00    +0.210 HD
ENDBRANCH   8   9
BRANCH   7  11
ATOM     11  O   UNL     1      26.998  47.691  10.261  0.00  0.00    -0.386 OA
ATOM     12  H   UNL     1      27.608  47.773  10.334  0.00  0.00    +0.210 HD
ENDBRANCH   7  11
BRANCH   6  13
ATOM     13  O   UNL     1      28.032  48.549   8.779  0.00  0.00    -0.386 OA
ATOM     14  H   UNL     1      28.515  48.246   8.537  0.00  0.00    +0.210 HD
ENDBRANCH   6  13
BRANCH   2   3
ATOM      3  C   UNL     1      27.205  48.751   6.969  0.00  0.00    +0.190 C 
BRANCH   3   4
ATOM      4  O   UNL     1      26.892  49.615   6.577  0.00  0.00    -0.392 OA
ATOM      5  H   UNL     1      26.853  50.122   6.932  0.00  0.00    +0.210 HD
ENDBRANCH   3   4
ENDBRANCH   2   3
ENDBRANCH  16  15
BRANCH  21  22
ATOM     22  O   UNL     1      22.119  44.667   7.199  0.00  0.00    -0.506 OA
ATOM     23  H   UNL     1      21.935  44.527   6.623  0.00  0.00    +0.292 HD
ENDBRANCH  21  22
BRANCH  27  34
ATOM     34  O   UNL     1      20.858  47.814   8.050  0.00  0.00    -0.506 OA
ATOM     35  H   UNL     1      20.558  47.977   7.531  0.00  0.00    +0.292 HD
ENDBRANCH  27  34
BRANCH  29  30
ATOM     30  C   UNL     1      23.060  50.423   8.986  0.00  0.00    +0.191 C 
BRANCH  30  31
ATOM     31  O   UNL     1      22.308  51.081   8.976  0.00  0.00    -0.390 OA
ATOM     32  H   UNL     1      22.334  51.588   9.332  0.00  0.00    +0.210 HD
ENDBRANCH  30  31
ENDBRANCH  29  30
TORSDOF 10
ENDMDL
MODEL 9
REMARK VINA RESULT:    -7.981      1.855      4.631
REMARK INTER + INTRA:           0.400
REMARK INTER:                 -11.013
REMARK INTRA:                  11.412
REMARK UNBOUND:                11.413
REMARK  Name = C:\Users\HP\Downloads\Anthraquinone_pdb\AD27.pdb
REMARK  10 active torsions:
REMARK  status: ('A' for Active; 'I' for Inactive)
REMARK    1  A    between atoms: O_2  and  C_12
REMARK    2  A    between atoms: O_3  and  C_13
REMARK    3  A    between atoms: O_4  and  C_14
REMARK    4  A    between atoms: O_5  and  C_19
REMARK    5  A    between atoms: O_7  and  C_24
REMARK    6  A    between atoms: O_8  and  C_25
REMARK    7  A    between atoms: O_9  and  C_30
REMARK    8  A    between atoms: C_10  and  C_11
REMARK    9  A    between atoms: C_15  and  C_19
REMARK   10  A    between atoms: C_26  and  C_30
REMARK                            x       y       z     vdW  Elec       q    Type
REMARK                         _______ _______ _______ _____ _____    ______ ____
ROOT
ATOM     16  C   UNL     1      19.579  54.810  27.590  0.00  0.00    +0.082 C 
ATOM     17  C   UNL     1      18.658  54.478  27.389  0.00  0.00    -0.023 A 
ATOM     18  C   UNL     1      18.052  54.159  28.174  0.00  0.00    +0.005 A 
ATOM     19  C   UNL     1      17.091  53.812  27.972  0.00  0.00    +0.004 A 
ATOM     20  C   UNL     1      16.749  53.787  26.989  0.00  0.00    +0.046 A 
ATOM     21  C   UNL     1      17.373  54.110  26.220  0.00  0.00    +0.128 A 
ATOM     24  C   UNL     1      18.330  54.454  26.444  0.00  0.00    +0.068 A 
ATOM     25  C   UNL     1      18.923  54.763  25.701  0.00  0.00    +0.201 C 
ATOM     26  C   UNL     1      19.844  55.095  25.902  0.00  0.00    +0.068 A 
ATOM     27  C   UNL     1      20.451  55.414  25.117  0.00  0.00    +0.128 A 
ATOM     28  C   UNL     1      21.412  55.761  25.319  0.00  0.00    +0.052 A 
ATOM     29  C   UNL     1      21.754  55.786  26.302  0.00  0.00    -0.018 A 
ATOM     33  C   UNL     1      21.130  55.463  27.071  0.00  0.00    +0.011 A 
ATOM     36  O   UNL     1      18.595  54.739  24.757  0.00  0.00    -0.286 OA
ATOM     37  C   UNL     1      20.173  55.119  26.846  0.00  0.00    -0.023 A 
ENDROOT
BRANCH  16  15
ATOM      1  O   UNL     1      20.305  54.014  28.946  0.00  0.00    -0.365 OA
ATOM      2  C   UNL     1      20.633  54.038  29.890  0.00  0.00    +0.175 C 
ATOM      6  C   UNL     1      20.564  54.881  30.422  0.00  0.00    +0.176 C 
ATOM      7  C   UNL     1      20.167  55.701  30.010  0.00  0.00    +0.176 C 
ATOM      8  C   UNL     1      19.839  55.678  29.066  0.00  0.00    +0.175 C 
ATOM     15  C   UNL     1      19.908  54.834  28.534  0.00  0.00    +0.162 C 
BRANCH   8   9
ATOM      9  O   UNL     1      19.442  56.498  28.654  0.00  0.00    -0.387 OA
ATOM     10  H   UNL     1      19.612  56.672  28.084  0.00  0.00    +0.210 HD
ENDBRANCH   8   9
BRANCH   7  11
ATOM     11  O   UNL     1      20.098  56.545  30.543  0.00  0.00    -0.386 OA
ATOM     12  H   UNL     1      19.715  56.997  30.359  0.00  0.00    +0.210 HD
ENDBRANCH   7  11
BRANCH   6  13
ATOM     13  O   UNL     1      20.892  54.905  31.367  0.00  0.00    -0.386 OA
ATOM     14  H   UNL     1      20.487  54.917  31.836  0.00  0.00    +0.210 HD
ENDBRANCH   6  13
BRANCH   2   3
ATOM      3  C   UNL     1      21.030  53.217  30.302  0.00  0.00    +0.190 C 
BRANCH   3   4
ATOM      4  O   UNL     1      20.949  52.335  29.838  0.00  0.00    -0.392 OA
ATOM      5  H   UNL     1      21.092  51.812  30.139  0.00  0.00    +0.210 HD
ENDBRANCH   3   4
ENDBRANCH   2   3
ENDBRANCH  16  15
BRANCH  21  22
ATOM     22  O   UNL     1      17.055  54.091  25.272  0.00  0.00    -0.506 OA
ATOM     23  H   UNL     1      17.053  54.612  24.936  0.00  0.00    +0.292 HD
ENDBRANCH  21  22
BRANCH  27  34
ATOM     34  O   UNL     1      20.112  55.386  24.177  0.00  0.00    -0.506 OA
ATOM     35  H   UNL     1      19.787  55.863  23.950  0.00  0.00    +0.292 HD
ENDBRANCH  27  34
BRANCH  29  30
ATOM     30  C   UNL     1      22.674  56.118  26.506  0.00  0.00    +0.191 C 
BRANCH  30  31
ATOM     31  O   UNL     1      22.947  56.285  27.453  0.00  0.00    -0.390 OA
ATOM     32  H   UNL     1      22.531  56.236  27.910  0.00  0.00    +0.210 HD
ENDBRANCH  30  31
ENDBRANCH  29  30
TORSDOF 10
ENDMDL
