MODEL 1
REMARK VINA RESULT:    -8.336      0.000      0.000
REMARK INTER + INTRA:         -16.344
REMARK INTER:                 -13.697
REMARK INTRA:                  -2.647
REMARK UNBOUND:                -2.647
REMARK  Name = C:\Users\HP\Downloads\Anthraquinone_pdb\AD29.pdb
REMARK  19 active torsions:
REMARK  status: ('A' for Active; 'I' for Inactive)
REMARK    1  A    between atoms: O_1  and  C_14
REMARK    2  A    between atoms: O_1  and  C_32
REMARK    3  A    between atoms: O_2  and  C_22
REMARK    4  A    between atoms: O_4  and  C_29
REMARK    5  A    between atoms: O_5  and  C_30
REMARK    6  A    between atoms: O_9  and  C_43
REMARK    7  A    between atoms: O_9  and  C_51
REMARK    8  A    between atoms: O_11  and  C_47
REMARK    9  A    between atoms: O_12  and  C_50
REMARK   10  A    between atoms: O_12  and  C_52
REMARK   11  A    between atoms: C_14  and  C_17
REMARK   12  A    between atoms: C_21  and  C_36
REMARK   13  A    between atoms: C_27  and  C_43
REMARK   14  A    between atoms: C_32  and  C_33
REMARK   15  A    between atoms: C_33  and  C_41
REMARK   16  A    between atoms: C_33  and  C_44
REMARK   17  A    between atoms: C_41  and  C_48
REMARK   18  A    between atoms: C_42  and  C_49
REMARK   19  A    between atoms: C_46  and  C_50
REMARK                            x       y       z     vdW  Elec       q    Type
REMARK                         _______ _______ _______ _____ _____    ______ ____
ROOT
ATOM      2  C   UNL     1      23.678  59.268  28.008  0.00  0.00    +0.193 C 
ATOM     28  C   UNL     1      24.439  59.638  26.699  0.00  0.00    +0.019 A 
ATOM     29  C   UNL     1      25.678  60.295  26.632  0.00  0.00    +0.009 A 
ATOM     30  C   UNL     1      26.284  60.603  25.390  0.00  0.00    +0.004 A 
ATOM     31  C   UNL     1      25.677  60.262  24.182  0.00  0.00    +0.046 A 
ATOM     32  C   UNL     1      24.465  59.601  24.214  0.00  0.00    +0.128 A 
ATOM     35  C   UNL     1      23.859  59.314  25.452  0.00  0.00    +0.071 A 
ATOM     36  C   UNL     1      22.542  58.686  25.453  0.00  0.00    +0.198 C 
ATOM     37  C   UNL     1      22.223  57.724  26.526  0.00  0.00    +0.034 A 
ATOM     38  C   UNL     1      21.191  56.766  26.281  0.00  0.00    -0.022 A 
ATOM     39  C   UNL     1      20.841  56.448  24.845  0.00  0.00    +0.045 C 
ATOM     40  C   UNL     1      20.506  56.231  27.390  0.00  0.00    +0.104 A 
ATOM     45  C   UNL     1      20.996  56.561  28.681  0.00  0.00    +0.132 A 
ATOM     46  C   UNL     1      22.124  57.381  28.887  0.00  0.00    +0.055 A 
ATOM     49  O   UNL     1      21.661  59.087  24.700  0.00  0.00    -0.286 OA
ATOM     50  C   UNL     1      22.746  58.018  27.806  0.00  0.00    +0.019 A 
ENDROOT
BRANCH   2   3
ATOM      3  C   UNL     1      22.709  60.445  28.501  0.00  0.00    +0.047 A 
ATOM      4  C   UNL     1      22.007  61.287  27.589  0.00  0.00    +0.012 A 
ATOM      5  C   UNL     1      20.866  62.037  27.954  0.00  0.00    +0.013 A 
ATOM      6  C   UNL     1      20.352  61.928  29.247  0.00  0.00    +0.037 A 
ATOM      7  C   UNL     1      19.091  62.590  29.681  0.00  0.00    +0.195 C 
ATOM      8  C   UNL     1      18.635  62.409  31.101  0.00  0.00    +0.037 A 
ATOM      9  C   UNL     1      17.533  63.110  31.621  0.00  0.00    +0.058 A 
ATOM     10  C   UNL     1      17.116  62.877  32.942  0.00  0.00    +0.132 A 
ATOM     11  C   UNL     1      17.807  61.990  33.796  0.00  0.00    +0.104 A 
ATOM     16  C   UNL     1      18.935  61.305  33.289  0.00  0.00    -0.021 A 
ATOM     17  C   UNL     1      19.754  60.353  34.130  0.00  0.00    +0.045 C 
ATOM     20  C   UNL     1      19.296  61.498  31.930  0.00  0.00    +0.037 A 
ATOM     21  C   UNL     1      20.317  60.645  31.302  0.00  0.00    +0.198 C 
ATOM     22  O   UNL     1      20.409  59.466  31.622  0.00  0.00    -0.286 OA
ATOM     23  O   UNL     1      18.452  63.296  28.920  0.00  0.00    -0.287 OA
ATOM     24  C   UNL     1      21.052  61.137  30.143  0.00  0.00    +0.075 A 
ATOM     25  C   UNL     1      22.277  60.526  29.827  0.00  0.00    +0.136 A 
BRANCH  11  12
ATOM     12  C   UNL     1      17.318  61.703  35.186  0.00  0.00    +0.343 C 
ATOM     13  O   UNL     1      16.961  60.596  35.559  0.00  0.00    -0.245 OA
BRANCH  12  14
ATOM     14  O   UNL     1      17.393  62.807  35.972  0.00  0.00    -0.464 OA
ATOM     15  C   UNL     1      16.350  62.954  36.943  0.00  0.00    +0.280 C 
ENDBRANCH  12  14
ENDBRANCH  11  12
BRANCH  10  18
ATOM     18  O   UNL     1      15.984  63.508  33.385  0.00  0.00    -0.506 OA
ATOM     19  H   UNL     1      15.202  62.955  33.224  0.00  0.00    +0.292 HD
ENDBRANCH  10  18
BRANCH  25  26
ATOM     26  O   UNL     1      23.014  60.046  30.874  0.00  0.00    -0.506 OA
ATOM     27  H   UNL     1      22.459  60.021  31.667  0.00  0.00    +0.292 HD
ENDBRANCH  25  26
ENDBRANCH   2   3
BRANCH  32  33
ATOM     33  O   UNL     1      23.885  59.187  23.049  0.00  0.00    -0.506 OA
ATOM     34  H   UNL     1      23.324  59.889  22.683  0.00  0.00    +0.292 HD
ENDBRANCH  32  33
BRANCH  40  41
ATOM     41  C   UNL     1      19.252  55.395  27.312  0.00  0.00    +0.343 C 
ATOM     42  O   UNL     1      18.214  55.840  26.836  0.00  0.00    -0.245 OA
BRANCH  41  43
ATOM     43  O   UNL     1      19.395  54.134  27.779  0.00  0.00    -0.464 OA
ATOM     44  C   UNL     1      18.309  53.612  28.557  0.00  0.00    +0.280 C 
ENDBRANCH  41  43
ENDBRANCH  40  41
BRANCH  45  47
ATOM     47  O   UNL     1      20.371  56.168  29.841  0.00  0.00    -0.506 OA
ATOM     48  H   UNL     1      20.446  55.191  29.935  0.00  0.00    +0.292 HD
ENDBRANCH  45  47
BRANCH   2   1
ATOM      1  O   UNL     1      24.586  59.051  29.192  0.00  0.00    -0.443 OA
BRANCH   1  51
ATOM     51  C   UNL     1      25.430  58.005  29.392  0.00  0.00    +0.311 C 
ATOM     56  O   UNL     1      26.289  57.673  28.585  0.00  0.00    -0.250 OA
BRANCH  51  52
ATOM     52  C   UNL     1      25.256  57.287  30.771  0.00  0.00    +0.094 C 
ATOM     53  C   UNL     1      25.678  58.054  32.029  0.00  0.00    +0.019 C 
BRANCH  52  54
ATOM     54  C   UNL     1      25.861  55.864  30.805  0.00  0.00    +0.011 C 
ATOM     55  C   UNL     1      25.856  55.223  32.183  0.00  0.00    +0.004 C 
ENDBRANCH  52  54
ENDBRANCH  51  52
ENDBRANCH   1  51
ENDBRANCH   2   1
TORSDOF 13
ENDMDL
MODEL 2
REMARK VINA RESULT:    -7.729      1.581      2.067
REMARK INTER + INTRA:         -15.346
REMARK INTER:                 -13.355
REMARK INTRA:                  -1.992
REMARK UNBOUND:                -2.647
REMARK  Name = C:\Users\HP\Downloads\Anthraquinone_pdb\AD29.pdb
REMARK  19 active torsions:
REMARK  status: ('A' for Active; 'I' for Inactive)
REMARK    1  A    between atoms: O_1  and  C_14
REMARK    2  A    between atoms: O_1  and  C_32
REMARK    3  A    between atoms: O_2  and  C_22
REMARK    4  A    between atoms: O_4  and  C_29
REMARK    5  A    between atoms: O_5  and  C_30
REMARK    6  A    between atoms: O_9  and  C_43
REMARK    7  A    between atoms: O_9  and  C_51
REMARK    8  A    between atoms: O_11  and  C_47
REMARK    9  A    between atoms: O_12  and  C_50
REMARK   10  A    between atoms: O_12  and  C_52
REMARK   11  A    between atoms: C_14  and  C_17
REMARK   12  A    between atoms: C_21  and  C_36
REMARK   13  A    between atoms: C_27  and  C_43
REMARK   14  A    between atoms: C_32  and  C_33
REMARK   15  A    between atoms: C_33  and  C_41
REMARK   16  A    between atoms: C_33  and  C_44
REMARK   17  A    between atoms: C_41  and  C_48
REMARK   18  A    between atoms: C_42  and  C_49
REMARK   19  A    between atoms: C_46  and  C_50
REMARK                            x       y       z     vdW  Elec       q    Type
REMARK                         _______ _______ _______ _____ _____    ______ ____
ROOT
ATOM      2  C   UNL     1      23.580  58.003  27.530  0.00  0.00    +0.193 C 
ATOM     28  C   UNL     1      24.018  58.049  26.035  0.00  0.00    +0.019 A 
ATOM     29  C   UNL     1      25.240  58.551  25.557  0.00  0.00    +0.009 A 
ATOM     30  C   UNL     1      25.541  58.564  24.174  0.00  0.00    +0.004 A 
ATOM     31  C   UNL     1      24.640  58.075  23.229  0.00  0.00    +0.046 A 
ATOM     32  C   UNL     1      23.436  57.561  23.669  0.00  0.00    +0.128 A 
ATOM     35  C   UNL     1      23.135  57.567  25.044  0.00  0.00    +0.071 A 
ATOM     36  C   UNL     1      21.823  57.091  25.471  0.00  0.00    +0.198 C 
ATOM     37  C   UNL     1      21.720  56.376  26.759  0.00  0.00    +0.034 A 
ATOM     38  C   UNL     1      20.606  55.502  26.953  0.00  0.00    -0.022 A 
ATOM     39  C   UNL     1      19.899  54.968  25.728  0.00  0.00    +0.045 C 
ATOM     40  C   UNL     1      20.183  55.251  28.273  0.00  0.00    +0.104 A 
ATOM     45  C   UNL     1      20.991  55.756  29.325  0.00  0.00    +0.132 A 
ATOM     46  C   UNL     1      22.181  56.478  29.099  0.00  0.00    +0.055 A 
ATOM     49  O   UNL     1      20.810  57.438  24.874  0.00  0.00    -0.286 OA
ATOM     50  C   UNL     1      22.556  56.841  27.800  0.00  0.00    +0.019 A 
ENDROOT
BRANCH   2   3
ATOM      3  C   UNL     1      22.830  59.343  27.985  0.00  0.00    +0.047 A 
ATOM      4  C   UNL     1      22.294  60.273  27.046  0.00  0.00    +0.012 A 
ATOM      5  C   UNL     1      21.300  61.221  27.382  0.00  0.00    +0.013 A 
ATOM      6  C   UNL     1      20.767  61.237  28.671  0.00  0.00    +0.037 A 
ATOM      7  C   UNL     1      19.639  62.121  29.076  0.00  0.00    +0.195 C 
ATOM      8  C   UNL     1      19.149  62.058  30.494  0.00  0.00    +0.037 A 
ATOM      9  C   UNL     1      18.185  62.955  30.986  0.00  0.00    +0.058 A 
ATOM     10  C   UNL     1      17.725  62.832  32.308  0.00  0.00    +0.132 A 
ATOM     11  C   UNL     1      18.243  61.858  33.189  0.00  0.00    +0.104 A 
ATOM     16  C   UNL     1      19.236  60.973  32.710  0.00  0.00    -0.021 A 
ATOM     17  C   UNL     1      19.869  59.913  33.582  0.00  0.00    +0.045 C 
ATOM     20  C   UNL     1      19.634  61.066  31.351  0.00  0.00    +0.037 A 
ATOM     21  C   UNL     1      20.493  60.031  30.754  0.00  0.00    +0.198 C 
ATOM     22  O   UNL     1      20.373  58.862  31.103  0.00  0.00    -0.286 OA
ATOM     23  O   UNL     1      19.139  62.909  28.291  0.00  0.00    -0.287 OA
ATOM     24  C   UNL     1      21.310  60.357  29.593  0.00  0.00    +0.075 A 
ATOM     25  C   UNL     1      22.410  59.532  29.304  0.00  0.00    +0.136 A 
BRANCH  11  12
ATOM     12  C   UNL     1      17.702  61.697  34.581  0.00  0.00    +0.343 C 
ATOM     13  O   UNL     1      16.686  61.068  34.839  0.00  0.00    -0.245 OA
BRANCH  12  14
ATOM     14  O   UNL     1      18.519  62.274  35.497  0.00  0.00    -0.464 OA
ATOM     15  C   UNL     1      18.090  63.544  36.004  0.00  0.00    +0.280 C 
ENDBRANCH  12  14
ENDBRANCH  11  12
BRANCH  10  18
ATOM     18  O   UNL     1      16.718  63.663  32.724  0.00  0.00    -0.506 OA
ATOM     19  H   UNL     1      16.973  64.122  33.541  0.00  0.00    +0.292 HD
ENDBRANCH  10  18
BRANCH  25  26
ATOM     26  O   UNL     1      23.044  58.957  30.370  0.00  0.00    -0.506 OA
ATOM     27  H   UNL     1      22.663  58.082  30.531  0.00  0.00    +0.292 HD
ENDBRANCH  25  26
ENDBRANCH   2   3
BRANCH  32  33
ATOM     33  O   UNL     1      22.566  57.006  22.774  0.00  0.00    -0.506 OA
ATOM     34  H   UNL     1      21.651  57.135  23.068  0.00  0.00    +0.292 HD
ENDBRANCH  32  33
BRANCH  40  41
ATOM     41  C   UNL     1      18.901  54.550  28.652  0.00  0.00    +0.343 C 
ATOM     42  O   UNL     1      18.909  53.439  29.169  0.00  0.00    -0.245 OA
BRANCH  41  43
ATOM     43  O   UNL     1      17.781  55.264  28.400  0.00  0.00    -0.464 OA
ATOM     44  C   UNL     1      17.834  56.666  28.701  0.00  0.00    +0.280 C 
ENDBRANCH  41  43
ENDBRANCH  40  41
BRANCH  45  47
ATOM     47  O   UNL     1      20.646  55.647  30.652  0.00  0.00    -0.506 OA
ATOM     48  H   UNL     1      21.071  56.376  31.158  0.00  0.00    +0.292 HD
ENDBRANCH  45  47
BRANCH   2   1
ATOM      1  O   UNL     1      24.735  57.910  28.495  0.00  0.00    -0.443 OA
BRANCH   1  51
ATOM     51  C   UNL     1      25.898  58.610  28.445  0.00  0.00    +0.311 C 
ATOM     56  O   UNL     1      26.979  58.099  28.179  0.00  0.00    -0.250 OA
BRANCH  51  52
ATOM     52  C   UNL     1      25.740  60.146  28.701  0.00  0.00    +0.094 C 
ATOM     53  C   UNL     1      26.209  61.101  27.597  0.00  0.00    +0.019 C 
BRANCH  52  54
ATOM     54  C   UNL     1      26.314  60.606  30.061  0.00  0.00    +0.011 C 
ATOM     55  C   UNL     1      25.347  61.433  30.892  0.00  0.00    +0.004 C 
ENDBRANCH  52  54
ENDBRANCH  51  52
ENDBRANCH   1  51
ENDBRANCH   2   1
TORSDOF 13
ENDMDL
MODEL 3
REMARK VINA RESULT:    -7.584      3.327      7.570
REMARK INTER + INTRA:         -15.107
REMARK INTER:                 -12.252
REMARK INTRA:                  -2.855
REMARK UNBOUND:                -2.647
REMARK  Name = C:\Users\HP\Downloads\Anthraquinone_pdb\AD29.pdb
REMARK  19 active torsions:
REMARK  status: ('A' for Active; 'I' for Inactive)
REMARK    1  A    between atoms: O_1  and  C_14
REMARK    2  A    between atoms: O_1  and  C_32
REMARK    3  A    between atoms: O_2  and  C_22
REMARK    4  A    between atoms: O_4  and  C_29
REMARK    5  A    between atoms: O_5  and  C_30
REMARK    6  A    between atoms: O_9  and  C_43
REMARK    7  A    between atoms: O_9  and  C_51
REMARK    8  A    between atoms: O_11  and  C_47
REMARK    9  A    between atoms: O_12  and  C_50
REMARK   10  A    between atoms: O_12  and  C_52
REMARK   11  A    between atoms: C_14  and  C_17
REMARK   12  A    between atoms: C_21  and  C_36
REMARK   13  A    between atoms: C_27  and  C_43
REMARK   14  A    between atoms: C_32  and  C_33
REMARK   15  A    between atoms: C_33  and  C_41
REMARK   16  A    between atoms: C_33  and  C_44
REMARK   17  A    between atoms: C_41  and  C_48
REMARK   18  A    between atoms: C_42  and  C_49
REMARK   19  A    between atoms: C_46  and  C_50
REMARK                            x       y       z     vdW  Elec       q    Type
REMARK                         _______ _______ _______ _____ _____    ______ ____
ROOT
ATOM      2  C   UNL     1      20.811  57.302  28.795  0.00  0.00    +0.193 C 
ATOM     28  C   UNL     1      20.088  56.196  27.968  0.00  0.00    +0.019 A 
ATOM     29  C   UNL     1      19.094  55.331  28.454  0.00  0.00    +0.009 A 
ATOM     30  C   UNL     1      18.506  54.344  27.627  0.00  0.00    +0.004 A 
ATOM     31  C   UNL     1      18.885  54.194  26.293  0.00  0.00    +0.046 A 
ATOM     32  C   UNL     1      19.849  55.040  25.781  0.00  0.00    +0.128 A 
ATOM     35  C   UNL     1      20.443  56.007  26.613  0.00  0.00    +0.071 A 
ATOM     36  C   UNL     1      21.514  56.833  26.066  0.00  0.00    +0.198 C 
ATOM     37  C   UNL     1      21.623  58.233  26.520  0.00  0.00    +0.034 A 
ATOM     38  C   UNL     1      22.305  59.160  25.673  0.00  0.00    -0.022 A 
ATOM     39  C   UNL     1      22.428  58.824  24.204  0.00  0.00    +0.045 C 
ATOM     40  C   UNL     1      22.892  60.295  26.269  0.00  0.00    +0.104 A 
ATOM     45  C   UNL     1      22.627  60.520  27.644  0.00  0.00    +0.132 A 
ATOM     46  C   UNL     1      21.809  59.670  28.417  0.00  0.00    +0.055 A 
ATOM     49  O   UNL     1      22.408  56.328  25.397  0.00  0.00    -0.286 OA
ATOM     50  C   UNL     1      21.315  58.476  27.878  0.00  0.00    +0.019 A 
ENDROOT
BRANCH   2   3
ATOM      3  C   UNL     1      22.118  56.750  29.536  0.00  0.00    +0.047 A 
ATOM      4  C   UNL     1      23.435  57.011  29.055  0.00  0.00    +0.012 A 
ATOM      5  C   UNL     1      24.588  56.904  29.866  0.00  0.00    +0.013 A 
ATOM      6  C   UNL     1      24.455  56.577  31.216  0.00  0.00    +0.037 A 
ATOM      7  C   UNL     1      25.601  56.557  32.167  0.00  0.00    +0.195 C 
ATOM      8  C   UNL     1      25.342  56.184  33.599  0.00  0.00    +0.037 A 
ATOM      9  C   UNL     1      26.389  56.010  34.521  0.00  0.00    +0.058 A 
ATOM     10  C   UNL     1      26.097  55.703  35.860  0.00  0.00    +0.132 A 
ATOM     11  C   UNL     1      24.772  55.508  36.308  0.00  0.00    +0.104 A 
ATOM     16  C   UNL     1      23.717  55.651  35.379  0.00  0.00    -0.021 A 
ATOM     17  C   UNL     1      22.268  55.440  35.755  0.00  0.00    +0.045 C 
ATOM     20  C   UNL     1      24.027  56.034  34.048  0.00  0.00    +0.037 A 
ATOM     21  C   UNL     1      22.956  56.409  33.112  0.00  0.00    +0.198 C 
ATOM     22  O   UNL     1      21.964  56.999  33.523  0.00  0.00    -0.286 OA
ATOM     23  O   UNL     1      26.736  56.801  31.795  0.00  0.00    -0.287 OA
ATOM     24  C   UNL     1      23.180  56.291  31.677  0.00  0.00    +0.075 A 
ATOM     25  C   UNL     1      22.058  56.234  30.833  0.00  0.00    +0.136 A 
BRANCH  11  12
ATOM     12  C   UNL     1      24.468  55.240  37.754  0.00  0.00    +0.343 C 
ATOM     13  O   UNL     1      24.000  56.078  38.510  0.00  0.00    -0.245 OA
BRANCH  12  14
ATOM     14  O   UNL     1      24.714  53.945  38.077  0.00  0.00    -0.464 OA
ATOM     15  C   UNL     1      23.574  53.173  38.473  0.00  0.00    +0.280 C 
ENDBRANCH  12  14
ENDBRANCH  11  12
BRANCH  10  18
ATOM     18  O   UNL     1      27.136  55.632  36.750  0.00  0.00    -0.506 OA
ATOM     19  H   UNL     1      27.563  54.761  36.705  0.00  0.00    +0.292 HD
ENDBRANCH  10  18
BRANCH  25  26
ATOM     26  O   UNL     1      20.937  55.638  31.339  0.00  0.00    -0.506 OA
ATOM     27  H   UNL     1      21.188  55.071  32.082  0.00  0.00    +0.292 HD
ENDBRANCH  25  26
ENDBRANCH   2   3
BRANCH  32  33
ATOM     33  O   UNL     1      20.185  54.965  24.459  0.00  0.00    -0.506 OA
ATOM     34  H   UNL     1      20.856  55.632  24.244  0.00  0.00    +0.292 HD
ENDBRANCH  32  33
BRANCH  40  41
ATOM     41  C   UNL     1      23.836  61.247  25.574  0.00  0.00    +0.343 C 
ATOM     42  O   UNL     1      23.449  61.995  24.684  0.00  0.00    -0.245 OA
BRANCH  41  43
ATOM     43  O   UNL     1      25.104  61.212  26.042  0.00  0.00    -0.464 OA
ATOM     44  C   UNL     1      25.937  60.150  25.557  0.00  0.00    +0.280 C 
ENDBRANCH  41  43
ENDBRANCH  40  41
BRANCH  45  47
ATOM     47  O   UNL     1      23.202  61.545  28.359  0.00  0.00    -0.506 OA
ATOM     48  H   UNL     1      23.456  61.214  29.251  0.00  0.00    +0.292 HD
ENDBRANCH  45  47
BRANCH   2   1
ATOM      1  O   UNL     1      19.978  57.850  29.926  0.00  0.00    -0.443 OA
BRANCH   1  51
ATOM     51  C   UNL     1      18.850  58.599  29.821  0.00  0.00    +0.311 C 
ATOM     56  O   UNL     1      18.104  58.556  28.851  0.00  0.00    -0.250 OA
BRANCH  51  52
ATOM     52  C   UNL     1      18.544  59.488  31.071  0.00  0.00    +0.094 C 
ATOM     53  C   UNL     1      17.125  59.438  31.648  0.00  0.00    +0.019 C 
BRANCH  52  54
ATOM     54  C   UNL     1      18.982  60.962  30.902  0.00  0.00    +0.011 C 
ATOM     55  C   UNL     1      20.375  61.259  31.432  0.00  0.00    +0.004 C 
ENDBRANCH  52  54
ENDBRANCH  51  52
ENDBRANCH   1  51
ENDBRANCH   2   1
TORSDOF 13
ENDMDL
MODEL 4
REMARK VINA RESULT:    -7.290      3.415      8.407
REMARK INTER + INTRA:         -14.624
REMARK INTER:                 -11.679
REMARK INTRA:                  -2.945
REMARK UNBOUND:                -2.647
REMARK  Name = C:\Users\HP\Downloads\Anthraquinone_pdb\AD29.pdb
REMARK  19 active torsions:
REMARK  status: ('A' for Active; 'I' for Inactive)
REMARK    1  A    between atoms: O_1  and  C_14
REMARK    2  A    between atoms: O_1  and  C_32
REMARK    3  A    between atoms: O_2  and  C_22
REMARK    4  A    between atoms: O_4  and  C_29
REMARK    5  A    between atoms: O_5  and  C_30
REMARK    6  A    between atoms: O_9  and  C_43
REMARK    7  A    between atoms: O_9  and  C_51
REMARK    8  A    between atoms: O_11  and  C_47
REMARK    9  A    between atoms: O_12  and  C_50
REMARK   10  A    between atoms: O_12  and  C_52
REMARK   11  A    between atoms: C_14  and  C_17
REMARK   12  A    between atoms: C_21  and  C_36
REMARK   13  A    between atoms: C_27  and  C_43
REMARK   14  A    between atoms: C_32  and  C_33
REMARK   15  A    between atoms: C_33  and  C_41
REMARK   16  A    between atoms: C_33  and  C_44
REMARK   17  A    between atoms: C_41  and  C_48
REMARK   18  A    between atoms: C_42  and  C_49
REMARK   19  A    between atoms: C_46  and  C_50
REMARK                            x       y       z     vdW  Elec       q    Type
REMARK                         _______ _______ _______ _____ _____    ______ ____
ROOT
ATOM      2  C   UNL     1      21.919  58.543  28.720  0.00  0.00    +0.193 C 
ATOM     28  C   UNL     1      21.350  57.092  28.742  0.00  0.00    +0.019 A 
ATOM     29  C   UNL     1      20.604  56.523  29.787  0.00  0.00    +0.009 A 
ATOM     30  C   UNL     1      20.142  55.186  29.720  0.00  0.00    +0.004 A 
ATOM     31  C   UNL     1      20.404  54.381  28.612  0.00  0.00    +0.046 A 
ATOM     32  C   UNL     1      21.123  54.917  27.561  0.00  0.00    +0.128 A 
ATOM     35  C   UNL     1      21.594  56.241  27.641  0.00  0.00    +0.071 A 
ATOM     36  C   UNL     1      22.418  56.753  26.551  0.00  0.00    +0.198 C 
ATOM     37  C   UNL     1      22.292  58.177  26.185  0.00  0.00    +0.034 A 
ATOM     38  C   UNL     1      22.685  58.568  24.868  0.00  0.00    -0.022 A 
ATOM     39  C   UNL     1      22.721  57.506  23.792  0.00  0.00    +0.045 C 
ATOM     40  C   UNL     1      23.092  59.902  24.665  0.00  0.00    +0.104 A 
ATOM     45  C   UNL     1      22.930  60.805  25.747  0.00  0.00    +0.132 A 
ATOM     46  C   UNL     1      22.382  60.424  26.989  0.00  0.00    +0.055 A 
ATOM     49  O   UNL     1      23.321  56.071  26.080  0.00  0.00    -0.286 OA
ATOM     50  C   UNL     1      22.083  59.081  27.252  0.00  0.00    +0.019 A 
ENDROOT
BRANCH   2   3
ATOM      3  C   UNL     1      23.380  58.632  29.371  0.00  0.00    +0.047 A 
ATOM      4  C   UNL     1      24.241  57.500  29.470  0.00  0.00    +0.012 A 
ATOM      5  C   UNL     1      25.639  57.608  29.648  0.00  0.00    +0.013 A 
ATOM      6  C   UNL     1      26.237  58.868  29.682  0.00  0.00    +0.037 A 
ATOM      7  C   UNL     1      27.710  59.070  29.749  0.00  0.00    +0.195 C 
ATOM      8  C   UNL     1      28.243  60.474  29.786  0.00  0.00    +0.037 A 
ATOM      9  C   UNL     1      29.608  60.744  29.987  0.00  0.00    +0.058 A 
ATOM     10  C   UNL     1      30.068  62.071  29.972  0.00  0.00    +0.132 A 
ATOM     11  C   UNL     1      29.187  63.163  29.814  0.00  0.00    +0.104 A 
ATOM     16  C   UNL     1      27.809  62.900  29.643  0.00  0.00    -0.021 A 
ATOM     17  C   UNL     1      26.784  64.000  29.489  0.00  0.00    +0.045 C 
ATOM     20  C   UNL     1      27.374  61.550  29.587  0.00  0.00    +0.037 A 
ATOM     21  C   UNL     1      25.994  61.228  29.190  0.00  0.00    +0.198 C 
ATOM     22  O   UNL     1      25.425  61.913  28.349  0.00  0.00    -0.286 OA
ATOM     23  O   UNL     1      28.477  58.124  29.808  0.00  0.00    -0.287 OA
ATOM     24  C   UNL     1      25.398  59.969  29.619  0.00  0.00    +0.075 A 
ATOM     25  C   UNL     1      23.997  59.862  29.610  0.00  0.00    +0.136 A 
BRANCH  11  12
ATOM     12  C   UNL     1      29.697  64.574  29.739  0.00  0.00    +0.343 C 
ATOM     13  O   UNL     1      29.737  65.221  28.704  0.00  0.00    -0.245 OA
BRANCH  12  14
ATOM     14  O   UNL     1      30.033  65.041  30.968  0.00  0.00    -0.464 OA
ATOM     15  C   UNL     1      31.095  66.002  31.002  0.00  0.00    +0.280 C 
ENDBRANCH  12  14
ENDBRANCH  11  12
BRANCH  10  18
ATOM     18  O   UNL     1      31.416  62.291  30.078  0.00  0.00    -0.506 OA
ATOM     19  H   UNL     1      31.609  63.242  30.038  0.00  0.00    +0.292 HD
ENDBRANCH  10  18
BRANCH  25  26
ATOM     26  O   UNL     1      23.292  61.005  29.867  0.00  0.00    -0.506 OA
ATOM     27  H   UNL     1      23.144  61.479  29.037  0.00  0.00    +0.292 HD
ENDBRANCH  25  26
ENDBRANCH   2   3
BRANCH  32  33
ATOM     33  O   UNL     1      21.329  54.177  26.432  0.00  0.00    -0.506 OA
ATOM     34  H   UNL     1      21.163  53.237  26.609  0.00  0.00    +0.292 HD
ENDBRANCH  32  33
BRANCH  40  41
ATOM     41  C   UNL     1      23.750  60.425  23.411  0.00  0.00    +0.343 C 
ATOM     42  O   UNL     1      23.240  61.318  22.746  0.00  0.00    -0.245 OA
BRANCH  41  43
ATOM     43  O   UNL     1      24.939  59.847  23.126  0.00  0.00    -0.464 OA
ATOM     44  C   UNL     1      26.113  60.611  23.433  0.00  0.00    +0.280 C 
ENDBRANCH  41  43
ENDBRANCH  40  41
BRANCH  45  47
ATOM     47  O   UNL     1      23.360  62.111  25.703  0.00  0.00    -0.506 OA
ATOM     48  H   UNL     1      23.160  62.546  26.563  0.00  0.00    +0.292 HD
ENDBRANCH  45  47
BRANCH   2   1
ATOM      1  O   UNL     1      21.115  59.518  29.542  0.00  0.00    -0.443 OA
BRANCH   1  51
ATOM     51  C   UNL     1      19.906  60.051  29.225  0.00  0.00    +0.311 C 
ATOM     56  O   UNL     1      19.013  59.413  28.683  0.00  0.00    -0.250 OA
BRANCH  51  52
ATOM     52  C   UNL     1      19.722  61.543  29.660  0.00  0.00    +0.094 C 
ATOM     53  C   UNL     1      18.811  61.825  30.861  0.00  0.00    +0.019 C 
BRANCH  52  54
ATOM     54  C   UNL     1      19.344  62.483  28.492  0.00  0.00    +0.011 C 
ATOM     55  C   UNL     1      20.513  63.277  27.933  0.00  0.00    +0.004 C 
ENDBRANCH  52  54
ENDBRANCH  51  52
ENDBRANCH   1  51
ENDBRANCH   2   1
TORSDOF 13
ENDMDL
MODEL 5
REMARK VINA RESULT:    -7.034      2.400      5.053
REMARK INTER + INTRA:         -14.205
REMARK INTER:                 -11.191
REMARK INTRA:                  -3.014
REMARK UNBOUND:                -2.647
REMARK  Name = C:\Users\HP\Downloads\Anthraquinone_pdb\AD29.pdb
REMARK  19 active torsions:
REMARK  status: ('A' for Active; 'I' for Inactive)
REMARK    1  A    between atoms: O_1  and  C_14
REMARK    2  A    between atoms: O_1  and  C_32
REMARK    3  A    between atoms: O_2  and  C_22
REMARK    4  A    between atoms: O_4  and  C_29
REMARK    5  A    between atoms: O_5  and  C_30
REMARK    6  A    between atoms: O_9  and  C_43
REMARK    7  A    between atoms: O_9  and  C_51
REMARK    8  A    between atoms: O_11  and  C_47
REMARK    9  A    between atoms: O_12  and  C_50
REMARK   10  A    between atoms: O_12  and  C_52
REMARK   11  A    between atoms: C_14  and  C_17
REMARK   12  A    between atoms: C_21  and  C_36
REMARK   13  A    between atoms: C_27  and  C_43
REMARK   14  A    between atoms: C_32  and  C_33
REMARK   15  A    between atoms: C_33  and  C_41
REMARK   16  A    between atoms: C_33  and  C_44
REMARK   17  A    between atoms: C_41  and  C_48
REMARK   18  A    between atoms: C_42  and  C_49
REMARK   19  A    between atoms: C_46  and  C_50
REMARK                            x       y       z     vdW  Elec       q    Type
REMARK                         _______ _______ _______ _____ _____    ______ ____
ROOT
ATOM      2  C   UNL     1      22.078  57.956  28.923  0.00  0.00    +0.193 C 
ATOM     28  C   UNL     1      22.030  56.741  27.947  0.00  0.00    +0.019 A 
ATOM     29  C   UNL     1      22.173  56.808  26.552  0.00  0.00    +0.009 A 
ATOM     30  C   UNL     1      22.098  55.647  25.746  0.00  0.00    +0.004 A 
ATOM     31  C   UNL     1      21.886  54.387  26.304  0.00  0.00    +0.046 A 
ATOM     32  C   UNL     1      21.756  54.286  27.676  0.00  0.00    +0.128 A 
ATOM     35  C   UNL     1      21.814  55.447  28.470  0.00  0.00    +0.071 A 
ATOM     36  C   UNL     1      21.594  55.318  29.907  0.00  0.00    +0.198 C 
ATOM     37  C   UNL     1      22.344  56.208  30.815  0.00  0.00    +0.034 A 
ATOM     38  C   UNL     1      22.524  55.787  32.168  0.00  0.00    -0.022 A 
ATOM     39  C   UNL     1      22.405  54.312  32.476  0.00  0.00    +0.045 C 
ATOM     40  C   UNL     1      22.723  56.779  33.150  0.00  0.00    +0.104 A 
ATOM     45  C   UNL     1      22.892  58.115  32.703  0.00  0.00    +0.132 A 
ATOM     46  C   UNL     1      22.874  58.476  31.341  0.00  0.00    +0.055 A 
ATOM     49  O   UNL     1      20.678  54.626  30.337  0.00  0.00    -0.286 OA
ATOM     50  C   UNL     1      22.559  57.529  30.358  0.00  0.00    +0.019 A 
ENDROOT
BRANCH   2   3
ATOM      3  C   UNL     1      20.637  58.620  29.138  0.00  0.00    +0.047 A 
ATOM      4  C   UNL     1      19.426  57.922  28.855  0.00  0.00    +0.012 A 
ATOM      5  C   UNL     1      18.175  58.297  29.397  0.00  0.00    +0.013 A 
ATOM      6  C   UNL     1      18.102  59.364  30.293  0.00  0.00    +0.037 A 
ATOM      7  C   UNL     1      16.850  59.751  30.998  0.00  0.00    +0.195 C 
ATOM      8  C   UNL     1      16.885  60.923  31.938  0.00  0.00    +0.037 A 
ATOM      9  C   UNL     1      15.718  61.432  32.533  0.00  0.00    +0.058 A 
ATOM     10  C   UNL     1      15.804  62.502  33.438  0.00  0.00    +0.132 A 
ATOM     11  C   UNL     1      17.034  63.129  33.735  0.00  0.00    +0.104 A 
ATOM     16  C   UNL     1      18.207  62.643  33.116  0.00  0.00    -0.021 A 
ATOM     17  C   UNL     1      19.567  63.260  33.350  0.00  0.00    +0.045 C 
ATOM     20  C   UNL     1      18.109  61.513  32.261  0.00  0.00    +0.037 A 
ATOM     21  C   UNL     1      19.324  60.840  31.775  0.00  0.00    +0.198 C 
ATOM     22  O   UNL     1      20.312  60.766  32.496  0.00  0.00    -0.286 OA
ATOM     23  O   UNL     1      15.802  59.159  30.800  0.00  0.00    -0.287 OA
ATOM     24  C   UNL     1      19.271  60.063  30.543  0.00  0.00    +0.075 A 
ATOM     25  C   UNL     1      20.478  59.795  29.876  0.00  0.00    +0.136 A 
BRANCH  11  12
ATOM     12  C   UNL     1      17.123  64.233  34.749  0.00  0.00    +0.343 C 
ATOM     13  O   UNL     1      17.250  65.411  34.451  0.00  0.00    -0.245 OA
BRANCH  12  14
ATOM     14  O   UNL     1      16.974  63.757  36.010  0.00  0.00    -0.464 OA
ATOM     15  C   UNL     1      18.140  63.813  36.841  0.00  0.00    +0.280 C 
ENDBRANCH  12  14
ENDBRANCH  11  12
BRANCH  10  18
ATOM     18  O   UNL     1      14.659  62.912  34.070  0.00  0.00    -0.506 OA
ATOM     19  H   UNL     1      14.596  63.881  34.064  0.00  0.00    +0.292 HD
ENDBRANCH  10  18
BRANCH  25  26
ATOM     26  O   UNL     1      21.458  60.744  29.973  0.00  0.00    -0.506 OA
ATOM     27  H   UNL     1      21.610  60.948  30.906  0.00  0.00    +0.292 HD
ENDBRANCH  25  26
ENDBRANCH   2   3
BRANCH  32  33
ATOM     33  O   UNL     1      21.623  53.057  28.257  0.00  0.00    -0.506 OA
ATOM     34  H   UNL     1      20.757  52.980  28.688  0.00  0.00    +0.292 HD
ENDBRANCH  32  33
BRANCH  40  41
ATOM     41  C   UNL     1      22.701  56.538  34.640  0.00  0.00    +0.343 C 
ATOM     42  O   UNL     1      21.675  56.197  35.217  0.00  0.00    -0.245 OA
BRANCH  41  43
ATOM     43  O   UNL     1      23.897  56.703  35.248  0.00  0.00    -0.464 OA
ATOM     44  C   UNL     1      24.847  55.640  35.090  0.00  0.00    +0.280 C 
ENDBRANCH  41  43
ENDBRANCH  40  41
BRANCH  45  47
ATOM     47  O   UNL     1      23.015  59.181  33.563  0.00  0.00    -0.506 OA
ATOM     48  H   UNL     1      23.209  59.994  33.044  0.00  0.00    +0.292 HD
ENDBRANCH  45  47
BRANCH   2   1
ATOM      1  O   UNL     1      22.915  59.103  28.417  0.00  0.00    -0.443 OA
BRANCH   1  51
ATOM     51  C   UNL     1      24.139  59.025  27.833  0.00  0.00    +0.311 C 
ATOM     56  O   UNL     1      25.024  58.276  28.226  0.00  0.00    -0.250 OA
BRANCH  51  52
ATOM     52  C   UNL     1      24.313  59.934  26.571  0.00  0.00    +0.094 C 
ATOM     53  C   UNL     1      25.299  61.104  26.670  0.00  0.00    +0.019 C 
BRANCH  52  54
ATOM     54  C   UNL     1      22.974  60.435  25.983  0.00  0.00    +0.011 C 
ATOM     55  C   UNL     1      22.644  59.859  24.617  0.00  0.00    +0.004 C 
ENDBRANCH  52  54
ENDBRANCH  51  52
ENDBRANCH   1  51
ENDBRANCH   2   1
TORSDOF 13
ENDMDL
MODEL 6
REMARK VINA RESULT:    -6.951     27.671     32.300
REMARK INTER + INTRA:         -14.067
REMARK INTER:                 -11.195
REMARK INTRA:                  -2.872
REMARK UNBOUND:                -2.647
REMARK  Name = C:\Users\HP\Downloads\Anthraquinone_pdb\AD29.pdb
REMARK  19 active torsions:
REMARK  status: ('A' for Active; 'I' for Inactive)
REMARK    1  A    between atoms: O_1  and  C_14
REMARK    2  A    between atoms: O_1  and  C_32
REMARK    3  A    between atoms: O_2  and  C_22
REMARK    4  A    between atoms: O_4  and  C_29
REMARK    5  A    between atoms: O_5  and  C_30
REMARK    6  A    between atoms: O_9  and  C_43
REMARK    7  A    between atoms: O_9  and  C_51
REMARK    8  A    between atoms: O_11  and  C_47
REMARK    9  A    between atoms: O_12  and  C_50
REMARK   10  A    between atoms: O_12  and  C_52
REMARK   11  A    between atoms: C_14  and  C_17
REMARK   12  A    between atoms: C_21  and  C_36
REMARK   13  A    between atoms: C_27  and  C_43
REMARK   14  A    between atoms: C_32  and  C_33
REMARK   15  A    between atoms: C_33  and  C_41
REMARK   16  A    between atoms: C_33  and  C_44
REMARK   17  A    between atoms: C_41  and  C_48
REMARK   18  A    between atoms: C_42  and  C_49
REMARK   19  A    between atoms: C_46  and  C_50
REMARK                            x       y       z     vdW  Elec       q    Type
REMARK                         _______ _______ _______ _____ _____    ______ ____
ROOT
ATOM      2  C   UNL     1      15.050  68.532  -2.075  0.00  0.00    +0.193 C 
ATOM     28  C   UNL     1      13.649  67.876  -2.274  0.00  0.00    +0.019 A 
ATOM     29  C   UNL     1      12.475  68.553  -2.639  0.00  0.00    +0.009 A 
ATOM     30  C   UNL     1      11.243  67.869  -2.780  0.00  0.00    +0.004 A 
ATOM     31  C   UNL     1      11.146  66.495  -2.566  0.00  0.00    +0.046 A 
ATOM     32  C   UNL     1      12.288  65.798  -2.221  0.00  0.00    +0.128 A 
ATOM     35  C   UNL     1      13.506  66.486  -2.065  0.00  0.00    +0.071 A 
ATOM     36  C   UNL     1      14.676  65.736  -1.622  0.00  0.00    +0.198 C 
ATOM     37  C   UNL     1      16.000  66.125  -2.148  0.00  0.00    +0.034 A 
ATOM     38  C   UNL     1      17.041  65.146  -2.132  0.00  0.00    -0.022 A 
ATOM     39  C   UNL     1      16.645  63.688  -2.068  0.00  0.00    +0.045 C 
ATOM     40  C   UNL     1      18.375  65.598  -2.097  0.00  0.00    +0.104 A 
ATOM     45  C   UNL     1      18.596  66.992  -2.243  0.00  0.00    +0.132 A 
ATOM     46  C   UNL     1      17.550  67.920  -2.424  0.00  0.00    +0.055 A 
ATOM     49  O   UNL     1      14.589  64.935  -0.699  0.00  0.00    -0.286 OA
ATOM     50  C   UNL     1      16.213  67.509  -2.342  0.00  0.00    +0.019 A 
ENDROOT
BRANCH   2   3
ATOM      3  C   UNL     1      15.272  69.047  -0.575  0.00  0.00    +0.047 A 
ATOM      4  C   UNL     1      14.826  68.307   0.559  0.00  0.00    +0.012 A 
ATOM      5  C   UNL     1      15.343  68.504   1.860  0.00  0.00    +0.013 A 
ATOM      6  C   UNL     1      16.372  69.423   2.063  0.00  0.00    +0.037 A 
ATOM      7  C   UNL     1      17.053  69.609   3.374  0.00  0.00    +0.195 C 
ATOM      8  C   UNL     1      18.146  70.634   3.480  0.00  0.00    +0.037 A 
ATOM      9  C   UNL     1      18.739  70.963   4.711  0.00  0.00    +0.058 A 
ATOM     10  C   UNL     1      19.787  71.896   4.755  0.00  0.00    +0.132 A 
ATOM     11  C   UNL     1      20.237  72.566   3.597  0.00  0.00    +0.104 A 
ATOM     16  C   UNL     1      19.624  72.264   2.360  0.00  0.00    -0.021 A 
ATOM     17  C   UNL     1      20.019  72.943   1.069  0.00  0.00    +0.045 C 
ATOM     20  C   UNL     1      18.617  71.264   2.324  0.00  0.00    +0.037 A 
ATOM     21  C   UNL     1      18.113  70.761   1.037  0.00  0.00    +0.198 C 
ATOM     22  O   UNL     1      18.871  70.661   0.080  0.00  0.00    -0.286 OA
ATOM     23  O   UNL     1      16.714  68.974   4.359  0.00  0.00    -0.287 OA
ATOM     24  C   UNL     1      16.784  70.167   0.969  0.00  0.00    +0.075 A 
ATOM     25  C   UNL     1      16.156  70.089  -0.286  0.00  0.00    +0.136 A 
BRANCH  11  12
ATOM     12  C   UNL     1      21.399  73.518   3.646  0.00  0.00    +0.343 C 
ATOM     13  O   UNL     1      21.283  74.727   3.517  0.00  0.00    -0.245 OA
BRANCH  12  14
ATOM     14  O   UNL     1      22.557  72.867   3.920  0.00  0.00    -0.464 OA
ATOM     15  C   UNL     1      23.421  73.502   4.871  0.00  0.00    +0.280 C 
ENDBRANCH  12  14
ENDBRANCH  11  12
BRANCH  10  18
ATOM     18  O   UNL     1      20.403  72.123   5.958  0.00  0.00    -0.506 OA
ATOM     19  H   UNL     1      19.832  71.839   6.691  0.00  0.00    +0.292 HD
ENDBRANCH  10  18
BRANCH  25  26
ATOM     26  O   UNL     1      16.439  71.086  -1.178  0.00  0.00    -0.506 OA
ATOM     27  H   UNL     1      17.272  71.509  -0.926  0.00  0.00    +0.292 HD
ENDBRANCH  25  26
ENDBRANCH   2   3
BRANCH  32  33
ATOM     33  O   UNL     1      12.238  64.440  -2.080  0.00  0.00    -0.506 OA
ATOM     34  H   UNL     1      11.874  64.031  -2.881  0.00  0.00    +0.292 HD
ENDBRANCH  32  33
BRANCH  40  41
ATOM     41  C   UNL     1      19.579  64.723  -1.847  0.00  0.00    +0.343 C 
ATOM     42  O   UNL     1      19.851  63.782  -2.584  0.00  0.00    -0.245 OA
BRANCH  41  43
ATOM     43  O   UNL     1      20.321  65.091  -0.778  0.00  0.00    -0.464 OA
ATOM     44  C   UNL     1      21.683  64.643  -0.758  0.00  0.00    +0.280 C 
ENDBRANCH  41  43
ENDBRANCH  40  41
BRANCH  45  47
ATOM     47  O   UNL     1      19.842  67.567  -2.148  0.00  0.00    -0.506 OA
ATOM     48  H   UNL     1      20.177  67.462  -1.228  0.00  0.00    +0.292 HD
ENDBRANCH  45  47
BRANCH   2   1
ATOM      1  O   UNL     1      15.254  69.777  -2.902  0.00  0.00    -0.443 OA
BRANCH   1  51
ATOM     51  C   UNL     1      15.004  69.925  -4.229  0.00  0.00    +0.311 C 
ATOM     56  O   UNL     1      15.248  69.059  -5.059  0.00  0.00    -0.250 OA
BRANCH  51  52
ATOM     52  C   UNL     1      14.321  71.280  -4.610  0.00  0.00    +0.094 C 
ATOM     53  C   UNL     1      15.125  72.263  -5.470  0.00  0.00    +0.019 C 
BRANCH  52  54
ATOM     54  C   UNL     1      13.717  72.028  -3.399  0.00  0.00    +0.011 C 
ATOM     55  C   UNL     1      12.198  72.084  -3.401  0.00  0.00    +0.004 C 
ENDBRANCH  52  54
ENDBRANCH  51  52
ENDBRANCH   1  51
ENDBRANCH   2   1
TORSDOF 13
ENDMDL
MODEL 7
REMARK VINA RESULT:    -6.946     19.428     24.471
REMARK INTER + INTRA:         -14.060
REMARK INTER:                 -11.427
REMARK INTRA:                  -2.633
REMARK UNBOUND:                -2.647
REMARK  Name = C:\Users\HP\Downloads\Anthraquinone_pdb\AD29.pdb
REMARK  19 active torsions:
REMARK  status: ('A' for Active; 'I' for Inactive)
REMARK    1  A    between atoms: O_1  and  C_14
REMARK    2  A    between atoms: O_1  and  C_32
REMARK    3  A    between atoms: O_2  and  C_22
REMARK    4  A    between atoms: O_4  and  C_29
REMARK    5  A    between atoms: O_5  and  C_30
REMARK    6  A    between atoms: O_9  and  C_43
REMARK    7  A    between atoms: O_9  and  C_51
REMARK    8  A    between atoms: O_11  and  C_47
REMARK    9  A    between atoms: O_12  and  C_50
REMARK   10  A    between atoms: O_12  and  C_52
REMARK   11  A    between atoms: C_14  and  C_17
REMARK   12  A    between atoms: C_21  and  C_36
REMARK   13  A    between atoms: C_27  and  C_43
REMARK   14  A    between atoms: C_32  and  C_33
REMARK   15  A    between atoms: C_33  and  C_41
REMARK   16  A    between atoms: C_33  and  C_44
REMARK   17  A    between atoms: C_41  and  C_48
REMARK   18  A    between atoms: C_42  and  C_49
REMARK   19  A    between atoms: C_46  and  C_50
REMARK                            x       y       z     vdW  Elec       q    Type
REMARK                         _______ _______ _______ _____ _____    ______ ____
ROOT
ATOM      2  C   UNL     1      14.507  40.681  22.580  0.00  0.00    +0.193 C 
ATOM     28  C   UNL     1      15.556  40.760  23.731  0.00  0.00    +0.019 A 
ATOM     29  C   UNL     1      16.936  40.541  23.595  0.00  0.00    +0.009 A 
ATOM     30  C   UNL     1      17.809  40.620  24.706  0.00  0.00    +0.004 A 
ATOM     31  C   UNL     1      17.335  40.924  25.982  0.00  0.00    +0.046 A 
ATOM     32  C   UNL     1      15.984  41.159  26.146  0.00  0.00    +0.128 A 
ATOM     35  C   UNL     1      15.119  41.062  25.040  0.00  0.00    +0.071 A 
ATOM     36  C   UNL     1      13.687  41.238  25.259  0.00  0.00    +0.198 C 
ATOM     37  C   UNL     1      12.889  41.888  24.201  0.00  0.00    +0.034 A 
ATOM     38  C   UNL     1      11.652  42.499  24.575  0.00  0.00    -0.022 A 
ATOM     39  C   UNL     1      11.462  42.893  26.022  0.00  0.00    +0.045 C 
ATOM     40  C   UNL     1      10.652  42.627  23.590  0.00  0.00    +0.104 A 
ATOM     45  C   UNL     1      11.001  42.286  22.258  0.00  0.00    +0.132 A 
ATOM     46  C   UNL     1      12.287  41.841  21.891  0.00  0.00    +0.055 A 
ATOM     49  O   UNL     1      13.131  40.694  26.207  0.00  0.00    -0.286 OA
ATOM     50  C   UNL     1      13.259  41.592  22.869  0.00  0.00    +0.019 A 
ENDROOT
BRANCH   2   3
ATOM      3  C   UNL     1      13.921  39.203  22.393  0.00  0.00    +0.047 A 
ATOM      4  C   UNL     1      13.972  38.225  23.430  0.00  0.00    +0.012 A 
ATOM      5  C   UNL     1      13.133  37.088  23.459  0.00  0.00    +0.013 A 
ATOM      6  C   UNL     1      12.166  36.916  22.468  0.00  0.00    +0.037 A 
ATOM      7  C   UNL     1      11.167  35.813  22.486  0.00  0.00    +0.195 C 
ATOM      8  C   UNL     1      10.176  35.720  21.361  0.00  0.00    +0.037 A 
ATOM      9  C   UNL     1       9.294  34.633  21.236  0.00  0.00    +0.058 A 
ATOM     10  C   UNL     1       8.355  34.610  20.192  0.00  0.00    +0.132 A 
ATOM     11  C   UNL     1       8.300  35.629  19.217  0.00  0.00    +0.104 A 
ATOM     16  C   UNL     1       9.205  36.710  19.318  0.00  0.00    -0.021 A 
ATOM     17  C   UNL     1       9.241  37.837  18.311  0.00  0.00    +0.045 C 
ATOM     20  C   UNL     1      10.097  36.752  20.422  0.00  0.00    +0.037 A 
ATOM     21  C   UNL     1      10.895  37.959  20.688  0.00  0.00    +0.198 C 
ATOM     22  O   UNL     1      10.426  39.066  20.454  0.00  0.00    -0.286 OA
ATOM     23  O   UNL     1      11.165  34.975  23.371  0.00  0.00    -0.287 OA
ATOM     24  C   UNL     1      12.137  37.847  21.442  0.00  0.00    +0.075 A 
ATOM     25  C   UNL     1      13.080  38.882  21.324  0.00  0.00    +0.136 A 
BRANCH  11  12
ATOM     12  C   UNL     1       7.254  35.625  18.140  0.00  0.00    +0.343 C 
ATOM     13  O   UNL     1       6.377  36.471  18.050  0.00  0.00    -0.245 OA
BRANCH  12  14
ATOM     14  O   UNL     1       7.457  34.612  17.261  0.00  0.00    -0.464 OA
ATOM     15  C   UNL     1       8.352  34.895  16.179  0.00  0.00    +0.280 C 
ENDBRANCH  12  14
ENDBRANCH  11  12
BRANCH  10  18
ATOM     18  O   UNL     1       7.450  33.581  20.156  0.00  0.00    -0.506 OA
ATOM     19  H   UNL     1       6.612  33.879  19.767  0.00  0.00    +0.292 HD
ENDBRANCH  10  18
BRANCH  25  26
ATOM     26  O   UNL     1      13.139  39.527  20.120  0.00  0.00    -0.506 OA
ATOM     27  H   UNL     1      14.050  39.809  19.955  0.00  0.00    +0.292 HD
ENDBRANCH  25  26
ENDBRANCH   2   3
BRANCH  32  33
ATOM     33  O   UNL     1      15.503  41.533  27.369  0.00  0.00    -0.506 OA
ATOM     34  H   UNL     1      15.729  40.868  28.038  0.00  0.00    +0.292 HD
ENDBRANCH  32  33
BRANCH  40  41
ATOM     41  C   UNL     1       9.222  43.030  23.857  0.00  0.00    +0.343 C 
ATOM     42  O   UNL     1       8.766  44.086  23.435  0.00  0.00    -0.245 OA
BRANCH  41  43
ATOM     43  O   UNL     1       8.510  42.120  24.559  0.00  0.00    -0.464 OA
ATOM     44  C   UNL     1       7.713  41.204  23.797  0.00  0.00    +0.280 C 
ENDBRANCH  41  43
ENDBRANCH  40  41
BRANCH  45  47
ATOM     47  O   UNL     1      10.095  42.293  21.222  0.00  0.00    -0.506 OA
ATOM     48  H   UNL     1      10.340  43.000  20.583  0.00  0.00    +0.292 HD
ENDBRANCH  45  47
BRANCH   2   1
ATOM      1  O   UNL     1      15.078  41.001  21.222  0.00  0.00    -0.443 OA
BRANCH   1  51
ATOM     51  C   UNL     1      15.435  42.226  20.754  0.00  0.00    +0.311 C 
ATOM     56  O   UNL     1      16.043  43.049  21.425  0.00  0.00    -0.250 OA
BRANCH  51  52
ATOM     52  C   UNL     1      15.055  42.482  19.258  0.00  0.00    +0.094 C 
ATOM     53  C   UNL     1      14.957  41.265  18.331  0.00  0.00    +0.019 C 
BRANCH  52  54
ATOM     54  C   UNL     1      15.913  43.578  18.584  0.00  0.00    +0.011 C 
ATOM     55  C   UNL     1      15.282  44.179  17.339  0.00  0.00    +0.004 C 
ENDBRANCH  52  54
ENDBRANCH  51  52
ENDBRANCH   1  51
ENDBRANCH   2   1
TORSDOF 13
ENDMDL
MODEL 8
REMARK VINA RESULT:    -6.915      1.570      2.105
REMARK INTER + INTRA:         -14.009
REMARK INTER:                 -11.422
REMARK INTRA:                  -2.587
REMARK UNBOUND:                -2.647
REMARK  Name = C:\Users\HP\Downloads\Anthraquinone_pdb\AD29.pdb
REMARK  19 active torsions:
REMARK  status: ('A' for Active; 'I' for Inactive)
REMARK    1  A    between atoms: O_1  and  C_14
REMARK    2  A    between atoms: O_1  and  C_32
REMARK    3  A    between atoms: O_2  and  C_22
REMARK    4  A    between atoms: O_4  and  C_29
REMARK    5  A    between atoms: O_5  and  C_30
REMARK    6  A    between atoms: O_9  and  C_43
REMARK    7  A    between atoms: O_9  and  C_51
REMARK    8  A    between atoms: O_11  and  C_47
REMARK    9  A    between atoms: O_12  and  C_50
REMARK   10  A    between atoms: O_12  and  C_52
REMARK   11  A    between atoms: C_14  and  C_17
REMARK   12  A    between atoms: C_21  and  C_36
REMARK   13  A    between atoms: C_27  and  C_43
REMARK   14  A    between atoms: C_32  and  C_33
REMARK   15  A    between atoms: C_33  and  C_41
REMARK   16  A    between atoms: C_33  and  C_44
REMARK   17  A    between atoms: C_41  and  C_48
REMARK   18  A    between atoms: C_42  and  C_49
REMARK   19  A    between atoms: C_46  and  C_50
REMARK                            x       y       z     vdW  Elec       q    Type
REMARK                         _______ _______ _______ _____ _____    ______ ____
ROOT
ATOM      2  C   UNL     1      23.521  59.202  29.908  0.00  0.00    +0.193 C 
ATOM     28  C   UNL     1      24.725  59.641  29.021  0.00  0.00    +0.019 A 
ATOM     29  C   UNL     1      25.889  60.278  29.481  0.00  0.00    +0.009 A 
ATOM     30  C   UNL     1      26.925  60.654  28.593  0.00  0.00    +0.004 A 
ATOM     31  C   UNL     1      26.835  60.402  27.224  0.00  0.00    +0.046 A 
ATOM     32  C   UNL     1      25.710  59.762  26.742  0.00  0.00    +0.128 A 
ATOM     35  C   UNL     1      24.675  59.407  27.629  0.00  0.00    +0.071 A 
ATOM     36  C   UNL     1      23.464  58.806  27.080  0.00  0.00    +0.198 C 
ATOM     37  C   UNL     1      22.764  57.782  27.880  0.00  0.00    +0.034 A 
ATOM     38  C   UNL     1      21.914  56.861  27.193  0.00  0.00    -0.022 A 
ATOM     39  C   UNL     1      22.149  56.642  25.716  0.00  0.00    +0.045 C 
ATOM     40  C   UNL     1      20.858  56.269  27.914  0.00  0.00    +0.104 A 
ATOM     45  C   UNL     1      20.809  56.506  29.313  0.00  0.00    +0.132 A 
ATOM     46  C   UNL     1      21.764  57.291  29.992  0.00  0.00    +0.055 A 
ATOM     49  O   UNL     1      22.940  59.270  26.073  0.00  0.00    -0.286 OA
ATOM     50  C   UNL     1      22.750  57.984  29.279  0.00  0.00    +0.019 A 
ENDROOT
BRANCH   2   3
ATOM      3  C   UNL     1      22.428  60.362  30.065  0.00  0.00    +0.047 A 
ATOM      4  C   UNL     1      21.659  60.840  28.963  0.00  0.00    +0.012 A 
ATOM      5  C   UNL     1      20.441  61.540  29.118  0.00  0.00    +0.013 A 
ATOM      6  C   UNL     1      19.918  61.741  30.396  0.00  0.00    +0.037 A 
ATOM      7  C   UNL     1      18.588  62.363  30.644  0.00  0.00    +0.195 C 
ATOM      8  C   UNL     1      18.127  62.537  32.062  0.00  0.00    +0.037 A 
ATOM      9  C   UNL     1      16.950  63.237  32.380  0.00  0.00    +0.058 A 
ATOM     10  C   UNL     1      16.536  63.338  33.718  0.00  0.00    +0.132 A 
ATOM     11  C   UNL     1      17.299  62.799  34.777  0.00  0.00    +0.104 A 
ATOM     16  C   UNL     1      18.500  62.121  34.467  0.00  0.00    -0.021 A 
ATOM     17  C   UNL     1      19.397  61.531  35.530  0.00  0.00    +0.045 C 
ATOM     20  C   UNL     1      18.863  61.966  33.104  0.00  0.00    +0.037 A 
ATOM     21  C   UNL     1      19.977  61.083  32.727  0.00  0.00    +0.198 C 
ATOM     22  O   UNL     1      20.184  60.055  33.361  0.00  0.00    -0.286 OA
ATOM     23  O   UNL     1      17.893  62.759  29.723  0.00  0.00    -0.287 OA
ATOM     24  C   UNL     1      20.678  61.307  31.469  0.00  0.00    +0.075 A 
ATOM     25  C   UNL     1      21.965  60.762  31.321  0.00  0.00    +0.136 A 
BRANCH  11  12
ATOM     12  C   UNL     1      16.816  62.861  36.198  0.00  0.00    +0.343 C 
ATOM     13  O   UNL     1      16.391  61.890  36.806  0.00  0.00    -0.245 OA
BRANCH  12  14
ATOM     14  O   UNL     1      16.981  64.102  36.720  0.00  0.00    -0.464 OA
ATOM     15  C   UNL     1      17.046  64.173  38.150  0.00  0.00    +0.280 C 
ENDBRANCH  12  14
ENDBRANCH  11  12
BRANCH  10  18
ATOM     18  O   UNL     1      15.336  63.946  33.981  0.00  0.00    -0.506 OA
ATOM     19  H   UNL     1      14.600  63.339  33.799  0.00  0.00    +0.292 HD
ENDBRANCH  10  18
BRANCH  25  26
ATOM     26  O   UNL     1      22.729  60.672  32.452  0.00  0.00    -0.506 OA
ATOM     27  H   UNL     1      22.688  61.512  32.930  0.00  0.00    +0.292 HD
ENDBRANCH  25  26
ENDBRANCH   2   3
BRANCH  32  33
ATOM     33  O   UNL     1      25.628  59.435  25.419  0.00  0.00    -0.506 OA
ATOM     34  H   UNL     1      26.450  59.673  24.961  0.00  0.00    +0.292 HD
ENDBRANCH  32  33
BRANCH  40  41
ATOM     41  C   UNL     1      19.738  55.462  27.303  0.00  0.00    +0.343 C 
ATOM     42  O   UNL     1      19.848  54.257  27.112  0.00  0.00    -0.245 OA
BRANCH  41  43
ATOM     43  O   UNL     1      18.625  56.179  27.026  0.00  0.00    -0.464 OA
ATOM     44  C   UNL     1      17.850  55.747  25.900  0.00  0.00    +0.280 C 
ENDBRANCH  41  43
ENDBRANCH  40  41
BRANCH  45  47
ATOM     47  O   UNL     1      19.787  56.051  30.113  0.00  0.00    -0.506 OA
ATOM     48  H   UNL     1      19.931  56.370  31.033  0.00  0.00    +0.292 HD
ENDBRANCH  45  47
BRANCH   2   1
ATOM      1  O   UNL     1      23.903  58.892  31.333  0.00  0.00    -0.443 OA
BRANCH   1  51
ATOM     51  C   UNL     1      24.631  57.832  31.771  0.00  0.00    +0.311 C 
ATOM     56  O   UNL     1      25.755  57.574  31.359  0.00  0.00    -0.250 OA
BRANCH  51  52
ATOM     52  C   UNL     1      23.939  56.991  32.894  0.00  0.00    +0.094 C 
ATOM     53  C   UNL     1      23.771  55.486  32.654  0.00  0.00    +0.019 C 
BRANCH  52  54
ATOM     54  C   UNL     1      22.597  57.591  33.374  0.00  0.00    +0.011 C 
ATOM     55  C   UNL     1      21.994  56.878  34.573  0.00  0.00    +0.004 C 
ENDBRANCH  52  54
ENDBRANCH  51  52
ENDBRANCH   1  51
ENDBRANCH   2   1
TORSDOF 13
ENDMDL
MODEL 9
REMARK VINA RESULT:    -6.903     18.660     21.717
REMARK INTER + INTRA:         -13.988
REMARK INTER:                 -11.215
REMARK INTRA:                  -2.773
REMARK UNBOUND:                -2.647
REMARK  Name = C:\Users\HP\Downloads\Anthraquinone_pdb\AD29.pdb
REMARK  19 active torsions:
REMARK  status: ('A' for Active; 'I' for Inactive)
REMARK    1  A    between atoms: O_1  and  C_14
REMARK    2  A    between atoms: O_1  and  C_32
REMARK    3  A    between atoms: O_2  and  C_22
REMARK    4  A    between atoms: O_4  and  C_29
REMARK    5  A    between atoms: O_5  and  C_30
REMARK    6  A    between atoms: O_9  and  C_43
REMARK    7  A    between atoms: O_9  and  C_51
REMARK    8  A    between atoms: O_11  and  C_47
REMARK    9  A    between atoms: O_12  and  C_50
REMARK   10  A    between atoms: O_12  and  C_52
REMARK   11  A    between atoms: C_14  and  C_17
REMARK   12  A    between atoms: C_21  and  C_36
REMARK   13  A    between atoms: C_27  and  C_43
REMARK   14  A    between atoms: C_32  and  C_33
REMARK   15  A    between atoms: C_33  and  C_41
REMARK   16  A    between atoms: C_33  and  C_44
REMARK   17  A    between atoms: C_41  and  C_48
REMARK   18  A    between atoms: C_42  and  C_49
REMARK   19  A    between atoms: C_46  and  C_50
REMARK                            x       y       z     vdW  Elec       q    Type
REMARK                         _______ _______ _______ _____ _____    ______ ____
ROOT
ATOM      2  C   UNL     1      13.626  40.906  22.827  0.00  0.00    +0.193 C 
ATOM     28  C   UNL     1      14.461  41.399  21.606  0.00  0.00    +0.019 A 
ATOM     29  C   UNL     1      15.217  42.581  21.558  0.00  0.00    +0.009 A 
ATOM     30  C   UNL     1      15.932  42.953  20.394  0.00  0.00    +0.004 A 
ATOM     31  C   UNL     1      15.919  42.157  19.248  0.00  0.00    +0.046 A 
ATOM     32  C   UNL     1      15.196  40.980  19.270  0.00  0.00    +0.128 A 
ATOM     35  C   UNL     1      14.474  40.625  20.424  0.00  0.00    +0.071 A 
ATOM     36  C   UNL     1      13.656  39.417  20.389  0.00  0.00    +0.198 C 
ATOM     37  C   UNL     1      13.533  38.616  21.623  0.00  0.00    +0.034 A 
ATOM     38  C   UNL     1      13.178  37.238  21.494  0.00  0.00    -0.022 A 
ATOM     39  C   UNL     1      13.433  36.559  20.168  0.00  0.00    +0.045 C 
ATOM     40  C   UNL     1      12.539  36.614  22.584  0.00  0.00    +0.104 A 
ATOM     45  C   UNL     1      12.436  37.352  23.791  0.00  0.00    +0.132 A 
ATOM     46  C   UNL     1      12.948  38.658  23.937  0.00  0.00    +0.055 A 
ATOM     49  O   UNL     1      12.941  39.178  19.423  0.00  0.00    -0.286 OA
ATOM     50  C   UNL     1      13.479  39.341  22.836  0.00  0.00    +0.019 A 
ENDROOT
BRANCH   2   3
ATOM      3  C   UNL     1      12.129  41.474  22.807  0.00  0.00    +0.047 A 
ATOM      4  C   UNL     1      11.109  40.908  21.986  0.00  0.00    +0.012 A 
ATOM      5  C   UNL     1       9.730  41.096  22.230  0.00  0.00    +0.013 A 
ATOM      6  C   UNL     1       9.318  41.823  23.348  0.00  0.00    +0.037 A 
ATOM      7  C   UNL     1       7.891  41.971  23.744  0.00  0.00    +0.195 C 
ATOM      8  C   UNL     1       7.562  42.782  24.964  0.00  0.00    +0.037 A 
ATOM      9  C   UNL     1       6.236  43.081  25.322  0.00  0.00    +0.058 A 
ATOM     10  C   UNL     1       5.975  43.807  26.496  0.00  0.00    +0.132 A 
ATOM     11  C   UNL     1       7.015  44.300  27.313  0.00  0.00    +0.104 A 
ATOM     16  C   UNL     1       8.351  44.031  26.942  0.00  0.00    -0.021 A 
ATOM     17  C   UNL     1       9.533  44.536  27.738  0.00  0.00    +0.045 C 
ATOM     20  C   UNL     1       8.593  43.233  25.793  0.00  0.00    +0.037 A 
ATOM     21  C   UNL     1       9.948  42.744  25.498  0.00  0.00    +0.198 C 
ATOM     22  O   UNL     1      10.702  42.440  26.416  0.00  0.00    -0.286 OA
ATOM     23  O   UNL     1       6.995  41.478  23.079  0.00  0.00    -0.287 OA
ATOM     24  C   UNL     1      10.306  42.401  24.128  0.00  0.00    +0.075 A 
ATOM     25  C   UNL     1      11.670  42.353  23.791  0.00  0.00    +0.136 A 
BRANCH  11  12
ATOM     12  C   UNL     1       6.723  45.024  28.597  0.00  0.00    +0.343 C 
ATOM     13  O   UNL     1       6.911  44.536  29.701  0.00  0.00    -0.245 OA
BRANCH  12  14
ATOM     14  O   UNL     1       6.297  46.290  28.362  0.00  0.00    -0.464 OA
ATOM     15  C   UNL     1       5.257  46.769  29.224  0.00  0.00    +0.280 C 
ENDBRANCH  12  14
ENDBRANCH  11  12
BRANCH  10  18
ATOM     18  O   UNL     1       4.668  43.999  26.862  0.00  0.00    -0.506 OA
ATOM     19  H   UNL     1       4.233  44.618  26.254  0.00  0.00    +0.292 HD
ENDBRANCH  10  18
BRANCH  25  26
ATOM     26  O   UNL     1      12.497  43.218  24.453  0.00  0.00    -0.506 OA
ATOM     27  H   UNL     1      12.326  44.119  24.145  0.00  0.00    +0.292 HD
ENDBRANCH  25  26
ENDBRANCH   2   3
BRANCH  32  33
ATOM     33  O   UNL     1      15.227  40.145  18.190  0.00  0.00    -0.506 OA
ATOM     34  H   UNL     1      14.483  40.333  17.596  0.00  0.00    +0.292 HD
ENDBRANCH  32  33
BRANCH  40  41
ATOM     41  C   UNL     1      11.893  35.250  22.543  0.00  0.00    +0.343 C 
ATOM     42  O   UNL     1      10.676  35.117  22.587  0.00  0.00    -0.245 OA
BRANCH  41  43
ATOM     43  O   UNL     1      12.767  34.225  22.425  0.00  0.00    -0.464 OA
ATOM     44  C   UNL     1      13.509  33.877  23.602  0.00  0.00    +0.280 C 
ENDBRANCH  41  43
ENDBRANCH  40  41
BRANCH  45  47
ATOM     47  O   UNL     1      11.768  36.886  24.899  0.00  0.00    -0.506 OA
ATOM     48  H   UNL     1      10.996  37.470  25.081  0.00  0.00    +0.292 HD
ENDBRANCH  45  47
BRANCH   2   1
ATOM      1  O   UNL     1      14.159  41.384  24.154  0.00  0.00    -0.443 OA
BRANCH   1  51
ATOM     51  C   UNL     1      15.075  40.758  24.938  0.00  0.00    +0.311 C 
ATOM     56  O   UNL     1      14.819  40.324  26.054  0.00  0.00    -0.250 OA
BRANCH  51  52
ATOM     52  C   UNL     1      16.482  40.584  24.276  0.00  0.00    +0.094 C 
ATOM     53  C   UNL     1      16.914  39.164  23.890  0.00  0.00    +0.019 C 
BRANCH  52  54
ATOM     54  C   UNL     1      17.622  41.276  25.059  0.00  0.00    +0.011 C 
ATOM     55  C   UNL     1      18.624  42.004  24.178  0.00  0.00    +0.004 C 
ENDBRANCH  52  54
ENDBRANCH  51  52
ENDBRANCH   1  51
ENDBRANCH   2   1
TORSDOF 13
ENDMDL
