MODEL 1
REMARK VINA RESULT:    -7.242      0.000      0.000
REMARK INTER + INTRA:          -7.665
REMARK INTER:                  -7.665
REMARK INTRA:                   0.000
REMARK UNBOUND:                 0.000
REMARK  Name = C:\Users\HP\Downloads\Anthraquinone_pdb\AD2.pdb
REMARK  3 active torsions:
REMARK  status: ('A' for Active; 'I' for Inactive)
REMARK    1  A    between atoms: O_1  and  C_12
REMARK    2  A    between atoms: O_4  and  C_14
REMARK    3  A    between atoms: C_13  and  C_19
REMARK                            x       y       z     vdW  Elec       q    Type
REMARK                         _______ _______ _______ _____ _____    ______ ____
ROOT
ATOM      3  C   UNL     1      20.700  56.981  24.029  0.00  0.00    +0.129 A 
ATOM      4  C   UNL     1      21.925  57.359  23.477  0.00  0.00    +0.049 A 
ATOM      5  C   UNL     1      23.115  56.888  24.029  0.00  0.00    -0.046 A 
ATOM      6  C   UNL     1      24.422  57.292  23.436  0.00  0.00    +0.044 C 
ATOM      7  C   UNL     1      23.085  56.036  25.134  0.00  0.00    +0.016 A 
ATOM      8  C   UNL     1      21.858  55.655  25.690  0.00  0.00    +0.037 A 
ATOM      9  C   UNL     1      21.836  54.753  26.860  0.00  0.00    +0.195 C 
ATOM     10  C   UNL     1      20.535  54.358  27.436  0.00  0.00    +0.037 A 
ATOM     11  C   UNL     1      20.500  53.503  28.544  0.00  0.00    +0.012 A 
ATOM     12  C   UNL     1      19.275  53.124  29.094  0.00  0.00    +0.004 A 
ATOM     13  C   UNL     1      18.086  53.595  28.543  0.00  0.00    +0.046 A 
ATOM     14  C   UNL     1      18.115  54.447  27.439  0.00  0.00    +0.128 A 
ATOM     17  C   UNL     1      19.342  54.830  26.882  0.00  0.00    +0.075 A 
ATOM     18  C   UNL     1      19.364  55.731  25.713  0.00  0.00    +0.202 C 
ATOM     19  O   UNL     1      18.319  56.144  25.228  0.00  0.00    -0.286 OA
ATOM     20  O   UNL     1      22.881  54.339  27.345  0.00  0.00    -0.287 OA
ATOM     21  C   UNL     1      20.666  56.127  25.137  0.00  0.00    +0.075 A 
ENDROOT
BRANCH   3   1
ATOM      1  O   UNL     1      19.576  57.480  23.440  0.00  0.00    -0.506 OA
ATOM      2  H   UNL     1      18.832  56.870  23.586  0.00  0.00    +0.292 HD
ENDBRANCH   3   1
BRANCH  14  15
ATOM     15  O   UNL     1      16.914  54.869  26.950  0.00  0.00    -0.506 OA
ATOM     16  H   UNL     1      16.982  55.770  26.601  0.00  0.00    +0.292 HD
ENDBRANCH  14  15
TORSDOF 2
ENDMDL
MODEL 2
REMARK VINA RESULT:    -7.070      3.478      5.717
REMARK INTER + INTRA:          -7.483
REMARK INTER:                  -7.483
REMARK INTRA:                   0.000
REMARK UNBOUND:                 0.000
REMARK  Name = C:\Users\HP\Downloads\Anthraquinone_pdb\AD2.pdb
REMARK  3 active torsions:
REMARK  status: ('A' for Active; 'I' for Inactive)
REMARK    1  A    between atoms: O_1  and  C_12
REMARK    2  A    between atoms: O_4  and  C_14
REMARK    3  A    between atoms: C_13  and  C_19
REMARK                            x       y       z     vdW  Elec       q    Type
REMARK                         _______ _______ _______ _____ _____    ______ ____
ROOT
ATOM      3  C   UNL     1      19.477  58.389  29.230  0.00  0.00    +0.129 A 
ATOM      4  C   UNL     1      18.840  59.074  30.265  0.00  0.00    +0.049 A 
ATOM      5  C   UNL     1      17.543  58.725  30.639  0.00  0.00    -0.046 A 
ATOM      6  C   UNL     1      16.866  59.457  31.748  0.00  0.00    +0.044 C 
ATOM      7  C   UNL     1      16.879  57.689  29.981  0.00  0.00    +0.016 A 
ATOM      8  C   UNL     1      17.515  57.001  28.941  0.00  0.00    +0.037 A 
ATOM      9  C   UNL     1      16.804  55.905  28.249  0.00  0.00    +0.195 C 
ATOM     10  C   UNL     1      17.487  55.186  27.154  0.00  0.00    +0.037 A 
ATOM     11  C   UNL     1      16.825  54.146  26.491  0.00  0.00    +0.012 A 
ATOM     12  C   UNL     1      17.464  53.461  25.457  0.00  0.00    +0.004 A 
ATOM     13  C   UNL     1      18.760  53.809  25.083  0.00  0.00    +0.046 A 
ATOM     14  C   UNL     1      19.423  54.845  25.741  0.00  0.00    +0.128 A 
ATOM     17  C   UNL     1      18.787  55.536  26.780  0.00  0.00    +0.075 A 
ATOM     18  C   UNL     1      19.498  56.630  27.472  0.00  0.00    +0.202 C 
ATOM     19  O   UNL     1      20.637  56.936  27.144  0.00  0.00    -0.286 OA
ATOM     20  O   UNL     1      15.666  55.599  28.578  0.00  0.00    -0.287 OA
ATOM     21  C   UNL     1      18.814  57.350  28.566  0.00  0.00    +0.075 A 
ENDROOT
BRANCH   3   1
ATOM      1  O   UNL     1      20.744  58.783  28.914  0.00  0.00    -0.506 OA
ATOM      2  H   UNL     1      20.795  58.992  27.966  0.00  0.00    +0.292 HD
ENDBRANCH   3   1
BRANCH  14  15
ATOM     15  O   UNL     1      20.689  55.133  25.324  0.00  0.00    -0.506 OA
ATOM     16  H   UNL     1      21.344  54.791  25.950  0.00  0.00    +0.292 HD
ENDBRANCH  14  15
TORSDOF 2
ENDMDL
MODEL 3
REMARK VINA RESULT:    -6.756     15.395     16.575
REMARK INTER + INTRA:          -7.151
REMARK INTER:                  -7.151
REMARK INTRA:                   0.000
REMARK UNBOUND:                 0.000
REMARK  Name = C:\Users\HP\Downloads\Anthraquinone_pdb\AD2.pdb
REMARK  3 active torsions:
REMARK  status: ('A' for Active; 'I' for Inactive)
REMARK    1  A    between atoms: O_1  and  C_12
REMARK    2  A    between atoms: O_4  and  C_14
REMARK    3  A    between atoms: C_13  and  C_19
REMARK                            x       y       z     vdW  Elec       q    Type
REMARK                         _______ _______ _______ _____ _____    ______ ____
ROOT
ATOM      3  C   UNL     1      14.743  40.339  19.310  0.00  0.00    +0.129 A 
ATOM      4  C   UNL     1      14.887  41.372  18.384  0.00  0.00    +0.049 A 
ATOM      5  C   UNL     1      15.629  42.506  18.713  0.00  0.00    -0.046 A 
ATOM      6  C   UNL     1      15.783  43.608  17.721  0.00  0.00    +0.044 C 
ATOM      7  C   UNL     1      16.229  42.610  19.968  0.00  0.00    +0.016 A 
ATOM      8  C   UNL     1      16.086  41.574  20.899  0.00  0.00    +0.037 A 
ATOM      9  C   UNL     1      16.725  41.693  22.227  0.00  0.00    +0.195 C 
ATOM     10  C   UNL     1      16.567  40.592  23.199  0.00  0.00    +0.037 A 
ATOM     11  C   UNL     1      17.168  40.692  24.460  0.00  0.00    +0.012 A 
ATOM     12  C   UNL     1      17.025  39.657  25.384  0.00  0.00    +0.004 A 
ATOM     13  C   UNL     1      16.284  38.524  25.056  0.00  0.00    +0.046 A 
ATOM     14  C   UNL     1      15.683  38.420  23.801  0.00  0.00    +0.128 A 
ATOM     17  C   UNL     1      15.824  39.456  22.869  0.00  0.00    +0.075 A 
ATOM     18  C   UNL     1      15.186  39.338  21.543  0.00  0.00    +0.202 C 
ATOM     19  O   UNL     1      14.535  38.342  21.254  0.00  0.00    -0.286 OA
ATOM     20  O   UNL     1      17.376  42.688  22.515  0.00  0.00    -0.287 OA
ATOM     21  C   UNL     1      15.343  40.438  20.570  0.00  0.00    +0.075 A 
ENDROOT
BRANCH   3   1
ATOM      1  O   UNL     1      14.003  39.260  18.922  0.00  0.00    -0.506 OA
ATOM      2  H   UNL     1      14.352  38.456  19.345  0.00  0.00    +0.292 HD
ENDBRANCH   3   1
BRANCH  14  15
ATOM     15  O   UNL     1      14.973  37.284  23.546  0.00  0.00    -0.506 OA
ATOM     16  H   UNL     1      15.174  36.944  22.662  0.00  0.00    +0.292 HD
ENDBRANCH  14  15
TORSDOF 2
ENDMDL
MODEL 4
REMARK VINA RESULT:    -6.703     14.755     16.339
REMARK INTER + INTRA:          -7.095
REMARK INTER:                  -7.095
REMARK INTRA:                   0.000
REMARK UNBOUND:                 0.000
REMARK  Name = C:\Users\HP\Downloads\Anthraquinone_pdb\AD2.pdb
REMARK  3 active torsions:
REMARK  status: ('A' for Active; 'I' for Inactive)
REMARK    1  A    between atoms: O_1  and  C_12
REMARK    2  A    between atoms: O_4  and  C_14
REMARK    3  A    between atoms: C_13  and  C_19
REMARK                            x       y       z     vdW  Elec       q    Type
REMARK                         _______ _______ _______ _____ _____    ______ ____
ROOT
ATOM      3  C   UNL     1      15.958  41.216  20.439  0.00  0.00    +0.129 A 
ATOM      4  C   UNL     1      15.084  40.575  19.561  0.00  0.00    +0.049 A 
ATOM      5  C   UNL     1      14.297  39.514  20.007  0.00  0.00    -0.046 A 
ATOM      6  C   UNL     1      13.363  38.833  19.067  0.00  0.00    +0.044 C 
ATOM      7  C   UNL     1      14.382  39.090  21.334  0.00  0.00    +0.016 A 
ATOM      8  C   UNL     1      15.258  39.731  22.218  0.00  0.00    +0.037 A 
ATOM      9  C   UNL     1      15.341  39.275  23.621  0.00  0.00    +0.195 C 
ATOM     10  C   UNL     1      16.269  39.960  24.544  0.00  0.00    +0.037 A 
ATOM     11  C   UNL     1      16.357  39.539  25.876  0.00  0.00    +0.012 A 
ATOM     12  C   UNL     1      17.230  40.182  26.755  0.00  0.00    +0.004 A 
ATOM     13  C   UNL     1      18.016  41.242  26.309  0.00  0.00    +0.046 A 
ATOM     14  C   UNL     1      17.932  41.665  24.982  0.00  0.00    +0.128 A 
ATOM     17  C   UNL     1      17.056  41.024  24.096  0.00  0.00    +0.075 A 
ATOM     18  C   UNL     1      16.973  41.480  22.694  0.00  0.00    +0.202 C 
ATOM     19  O   UNL     1      17.663  42.412  22.302  0.00  0.00    -0.286 OA
ATOM     20  O   UNL     1      14.651  38.343  24.013  0.00  0.00    -0.287 OA
ATOM     21  C   UNL     1      16.046  40.794  21.771  0.00  0.00    +0.075 A 
ENDROOT
BRANCH   3   1
ATOM      1  O   UNL     1      16.698  42.245  19.936  0.00  0.00    -0.506 OA
ATOM      2  H   UNL     1      17.382  42.501  20.578  0.00  0.00    +0.292 HD
ENDBRANCH   3   1
BRANCH  14  15
ATOM     15  O   UNL     1      18.728  42.709  24.613  0.00  0.00    -0.506 OA
ATOM     16  H   UNL     1      18.201  43.506  24.458  0.00  0.00    +0.292 HD
ENDBRANCH  14  15
TORSDOF 2
ENDMDL
MODEL 5
REMARK VINA RESULT:    -6.679     14.408     16.370
REMARK INTER + INTRA:          -7.070
REMARK INTER:                  -7.070
REMARK INTRA:                   0.000
REMARK UNBOUND:                 0.000
REMARK  Name = C:\Users\HP\Downloads\Anthraquinone_pdb\AD2.pdb
REMARK  3 active torsions:
REMARK  status: ('A' for Active; 'I' for Inactive)
REMARK    1  A    between atoms: O_1  and  C_12
REMARK    2  A    between atoms: O_4  and  C_14
REMARK    3  A    between atoms: C_13  and  C_19
REMARK                            x       y       z     vdW  Elec       q    Type
REMARK                         _______ _______ _______ _____ _____    ______ ____
ROOT
ATOM      3  C   UNL     1      17.826  41.634  25.015  0.00  0.00    +0.129 A 
ATOM      4  C   UNL     1      17.807  41.203  26.342  0.00  0.00    +0.049 A 
ATOM      5  C   UNL     1      16.895  40.230  26.747  0.00  0.00    -0.046 A 
ATOM      6  C   UNL     1      16.877  39.771  28.165  0.00  0.00    +0.044 C 
ATOM      7  C   UNL     1      15.999  39.684  25.827  0.00  0.00    +0.016 A 
ATOM      8  C   UNL     1      16.016  40.114  24.495  0.00  0.00    +0.037 A 
ATOM      9  C   UNL     1      15.064  39.529  23.528  0.00  0.00    +0.195 C 
ATOM     10  C   UNL     1      15.093  39.990  22.125  0.00  0.00    +0.037 A 
ATOM     11  C   UNL     1      14.197  39.444  21.198  0.00  0.00    +0.012 A 
ATOM     12  C   UNL     1      14.219  39.874  19.870  0.00  0.00    +0.004 A 
ATOM     13  C   UNL     1      15.130  40.846  19.465  0.00  0.00    +0.046 A 
ATOM     14  C   UNL     1      16.025  41.393  20.385  0.00  0.00    +0.128 A 
ATOM     17  C   UNL     1      16.008  40.965  21.718  0.00  0.00    +0.075 A 
ATOM     18  C   UNL     1      16.959  41.549  22.685  0.00  0.00    +0.202 C 
ATOM     19  O   UNL     1      17.761  42.403  22.329  0.00  0.00    -0.286 OA
ATOM     20  O   UNL     1      14.263  38.674  23.884  0.00  0.00    -0.287 OA
ATOM     21  C   UNL     1      16.930  41.088  24.088  0.00  0.00    +0.075 A 
ENDROOT
BRANCH   3   1
ATOM      1  O   UNL     1      18.743  42.589  24.687  0.00  0.00    -0.506 OA
ATOM      2  H   UNL     1      18.335  43.470  24.749  0.00  0.00    +0.292 HD
ENDBRANCH   3   1
BRANCH  14  15
ATOM     15  O   UNL     1      16.890  42.340  19.920  0.00  0.00    -0.506 OA
ATOM     16  H   UNL     1      17.550  41.943  19.334  0.00  0.00    +0.292 HD
ENDBRANCH  14  15
TORSDOF 2
ENDMDL
MODEL 6
REMARK VINA RESULT:    -6.523     26.775     28.552
REMARK INTER + INTRA:          -6.904
REMARK INTER:                  -6.904
REMARK INTRA:                   0.000
REMARK UNBOUND:                 0.000
REMARK  Name = C:\Users\HP\Downloads\Anthraquinone_pdb\AD2.pdb
REMARK  3 active torsions:
REMARK  status: ('A' for Active; 'I' for Inactive)
REMARK    1  A    between atoms: O_1  and  C_12
REMARK    2  A    between atoms: O_4  and  C_14
REMARK    3  A    between atoms: C_13  and  C_19
REMARK                            x       y       z     vdW  Elec       q    Type
REMARK                         _______ _______ _______ _____ _____    ______ ____
ROOT
ATOM      3  C   UNL     1      16.929  69.525   3.080  0.00  0.00    +0.129 A 
ATOM      4  C   UNL     1      16.127  69.167   1.997  0.00  0.00    +0.049 A 
ATOM      5  C   UNL     1      16.265  69.828   0.777  0.00  0.00    -0.046 A 
ATOM      6  C   UNL     1      15.408  69.441  -0.380  0.00  0.00    +0.044 C 
ATOM      7  C   UNL     1      17.206  70.848   0.636  0.00  0.00    +0.016 A 
ATOM      8  C   UNL     1      18.013  71.209   1.722  0.00  0.00    +0.037 A 
ATOM      9  C   UNL     1      19.007  72.291   1.563  0.00  0.00    +0.195 C 
ATOM     10  C   UNL     1      19.853  72.662   2.716  0.00  0.00    +0.037 A 
ATOM     11  C   UNL     1      20.799  73.685   2.579  0.00  0.00    +0.012 A 
ATOM     12  C   UNL     1      21.603  74.041   3.663  0.00  0.00    +0.004 A 
ATOM     13  C   UNL     1      21.464  73.381   4.882  0.00  0.00    +0.046 A 
ATOM     14  C   UNL     1      20.522  72.362   5.023  0.00  0.00    +0.128 A 
ATOM     17  C   UNL     1      19.714  72.000   3.938  0.00  0.00    +0.075 A 
ATOM     18  C   UNL     1      18.721  70.919   4.097  0.00  0.00    +0.202 C 
ATOM     19  O   UNL     1      18.600  70.338   5.167  0.00  0.00    -0.286 OA
ATOM     20  O   UNL     1      19.129  72.871   0.492  0.00  0.00    -0.287 OA
ATOM     21  C   UNL     1      17.875  70.548   2.944  0.00  0.00    +0.075 A 
ENDROOT
BRANCH   3   1
ATOM      1  O   UNL     1      16.740  68.839   4.244  0.00  0.00    -0.506 OA
ATOM      2  H   UNL     1      17.494  68.990   4.839  0.00  0.00    +0.292 HD
ENDBRANCH   3   1
BRANCH  14  15
ATOM     15  O   UNL     1      20.441  71.758   6.243  0.00  0.00    -0.506 OA
ATOM     16  H   UNL     1      21.228  71.220   6.414  0.00  0.00    +0.292 HD
ENDBRANCH  14  15
TORSDOF 2
ENDMDL
MODEL 7
REMARK VINA RESULT:    -6.445     26.773     28.353
REMARK INTER + INTRA:          -6.821
REMARK INTER:                  -6.821
REMARK INTRA:                   0.000
REMARK UNBOUND:                 0.000
REMARK  Name = C:\Users\HP\Downloads\Anthraquinone_pdb\AD2.pdb
REMARK  3 active torsions:
REMARK  status: ('A' for Active; 'I' for Inactive)
REMARK    1  A    between atoms: O_1  and  C_12
REMARK    2  A    between atoms: O_4  and  C_14
REMARK    3  A    between atoms: C_13  and  C_19
REMARK                            x       y       z     vdW  Elec       q    Type
REMARK                         _______ _______ _______ _____ _____    ______ ____
ROOT
ATOM      3  C   UNL     1      20.291  72.169   4.951  0.00  0.00    +0.129 A 
ATOM      4  C   UNL     1      21.252  73.176   4.855  0.00  0.00    +0.049 A 
ATOM      5  C   UNL     1      21.468  73.822   3.639  0.00  0.00    -0.046 A 
ATOM      6  C   UNL     1      22.494  74.899   3.540  0.00  0.00    +0.044 C 
ATOM      7  C   UNL     1      20.724  73.464   2.514  0.00  0.00    +0.016 A 
ATOM      8  C   UNL     1      19.759  72.453   2.608  0.00  0.00    +0.037 A 
ATOM      9  C   UNL     1      18.975  72.081   1.411  0.00  0.00    +0.195 C 
ATOM     10  C   UNL     1      17.960  71.014   1.523  0.00  0.00    +0.037 A 
ATOM     11  C   UNL     1      17.210  70.651   0.398  0.00  0.00    +0.012 A 
ATOM     12  C   UNL     1      16.248  69.645   0.496  0.00  0.00    +0.004 A 
ATOM     13  C   UNL     1      16.032  69.000   1.711  0.00  0.00    +0.046 A 
ATOM     14  C   UNL     1      16.777  69.358   2.835  0.00  0.00    +0.128 A 
ATOM     17  C   UNL     1      17.743  70.368   2.743  0.00  0.00    +0.075 A 
ATOM     18  C   UNL     1      18.526  70.740   3.938  0.00  0.00    +0.202 C 
ATOM     19  O   UNL     1      18.335  70.174   5.007  0.00  0.00    -0.286 OA
ATOM     20  O   UNL     1      19.165  72.647   0.343  0.00  0.00    -0.287 OA
ATOM     21  C   UNL     1      19.542  71.806   3.826  0.00  0.00    +0.075 A 
ENDROOT
BRANCH   3   1
ATOM      1  O   UNL     1      20.133  71.579   6.171  0.00  0.00    -0.506 OA
ATOM      2  H   UNL     1      21.001  71.323   6.526  0.00  0.00    +0.292 HD
ENDBRANCH   3   1
BRANCH  14  15
ATOM     15  O   UNL     1      16.513  68.686   3.992  0.00  0.00    -0.506 OA
ATOM     16  H   UNL     1      15.558  68.612   4.137  0.00  0.00    +0.292 HD
ENDBRANCH  14  15
TORSDOF 2
ENDMDL
MODEL 8
REMARK VINA RESULT:    -6.330     16.084     17.336
REMARK INTER + INTRA:          -6.700
REMARK INTER:                  -6.700
REMARK INTRA:                   0.000
REMARK UNBOUND:                 0.000
REMARK  Name = C:\Users\HP\Downloads\Anthraquinone_pdb\AD2.pdb
REMARK  3 active torsions:
REMARK  status: ('A' for Active; 'I' for Inactive)
REMARK    1  A    between atoms: O_1  and  C_12
REMARK    2  A    between atoms: O_4  and  C_14
REMARK    3  A    between atoms: C_13  and  C_19
REMARK                            x       y       z     vdW  Elec       q    Type
REMARK                         _______ _______ _______ _____ _____    ______ ____
ROOT
ATOM      3  C   UNL     1      16.362  42.258  20.986  0.00  0.00    +0.129 A 
ATOM      4  C   UNL     1      16.213  43.111  19.892  0.00  0.00    +0.049 A 
ATOM      5  C   UNL     1      15.385  42.748  18.831  0.00  0.00    -0.046 A 
ATOM      6  C   UNL     1      15.227  43.663  17.664  0.00  0.00    +0.044 C 
ATOM      7  C   UNL     1      14.702  41.532  18.860  0.00  0.00    +0.016 A 
ATOM      8  C   UNL     1      14.849  40.674  19.957  0.00  0.00    +0.037 A 
ATOM      9  C   UNL     1      14.122  39.388  19.979  0.00  0.00    +0.195 C 
ATOM     10  C   UNL     1      14.285  38.492  21.142  0.00  0.00    +0.037 A 
ATOM     11  C   UNL     1      13.601  37.271  21.176  0.00  0.00    +0.012 A 
ATOM     12  C   UNL     1      13.749  36.419  22.272  0.00  0.00    +0.004 A 
ATOM     13  C   UNL     1      14.576  36.782  23.332  0.00  0.00    +0.046 A 
ATOM     14  C   UNL     1      15.259  37.997  23.303  0.00  0.00    +0.128 A 
ATOM     17  C   UNL     1      15.114  38.856  22.206  0.00  0.00    +0.075 A 
ATOM     18  C   UNL     1      15.841  40.142  22.184  0.00  0.00    +0.202 C 
ATOM     19  O   UNL     1      16.567  40.460  23.116  0.00  0.00    -0.286 OA
ATOM     20  O   UNL     1      13.395  39.069  19.047  0.00  0.00    -0.287 OA
ATOM     21  C   UNL     1      15.678  41.037  21.020  0.00  0.00    +0.075 A 
ENDROOT
BRANCH   3   1
ATOM      1  O   UNL     1      17.187  42.675  21.989  0.00  0.00    -0.506 OA
ATOM      2  H   UNL     1      17.291  43.641  21.947  0.00  0.00    +0.292 HD
ENDBRANCH   3   1
BRANCH  14  15
ATOM     15  O   UNL     1      16.051  38.289  24.374  0.00  0.00    -0.506 OA
ATOM     16  H   UNL     1      15.516  38.564  25.133  0.00  0.00    +0.292 HD
ENDBRANCH  14  15
TORSDOF 2
ENDMDL
MODEL 9
REMARK VINA RESULT:    -6.143     19.127     21.137
REMARK INTER + INTRA:          -6.503
REMARK INTER:                  -6.503
REMARK INTRA:                   0.000
REMARK UNBOUND:                 0.000
REMARK  Name = C:\Users\HP\Downloads\Anthraquinone_pdb\AD2.pdb
REMARK  3 active torsions:
REMARK  status: ('A' for Active; 'I' for Inactive)
REMARK    1  A    between atoms: O_1  and  C_12
REMARK    2  A    between atoms: O_4  and  C_14
REMARK    3  A    between atoms: C_13  and  C_19
REMARK                            x       y       z     vdW  Elec       q    Type
REMARK                         _______ _______ _______ _____ _____    ______ ____
ROOT
ATOM      3  C   UNL     1      23.307  52.661   3.903  0.00  0.00    +0.129 A 
ATOM      4  C   UNL     1      22.603  53.331   2.902  0.00  0.00    +0.049 A 
ATOM      5  C   UNL     1      21.213  53.244   2.847  0.00  0.00    -0.046 A 
ATOM      6  C   UNL     1      20.464  53.964   1.778  0.00  0.00    +0.044 C 
ATOM      7  C   UNL     1      20.521  52.487   3.793  0.00  0.00    +0.016 A 
ATOM      8  C   UNL     1      21.224  51.813   4.798  0.00  0.00    +0.037 A 
ATOM      9  C   UNL     1      20.483  51.013   5.796  0.00  0.00    +0.195 C 
ATOM     10  C   UNL     1      21.237  50.307   6.852  0.00  0.00    +0.037 A 
ATOM     11  C   UNL     1      20.546  49.547   7.804  0.00  0.00    +0.012 A 
ATOM     12  C   UNL     1      21.251  48.878   8.806  0.00  0.00    +0.004 A 
ATOM     13  C   UNL     1      22.640  48.965   8.861  0.00  0.00    +0.046 A 
ATOM     14  C   UNL     1      23.332  49.721   7.915  0.00  0.00    +0.128 A 
ATOM     17  C   UNL     1      22.630  50.395   6.908  0.00  0.00    +0.075 A 
ATOM     18  C   UNL     1      23.370  51.194   5.911  0.00  0.00    +0.202 C 
ATOM     19  O   UNL     1      24.591  51.272   5.960  0.00  0.00    -0.286 OA
ATOM     20  O   UNL     1      19.262  50.936   5.747  0.00  0.00    -0.287 OA
ATOM     21  C   UNL     1      22.616  51.899   4.854  0.00  0.00    +0.075 A 
ENDROOT
BRANCH   3   1
ATOM      1  O   UNL     1      24.665  52.788   3.897  0.00  0.00    -0.506 OA
ATOM      2  H   UNL     1      24.935  53.381   3.175  0.00  0.00    +0.292 HD
ENDBRANCH   3   1
BRANCH  14  15
ATOM     15  O   UNL     1      24.690  49.763   8.029  0.00  0.00    -0.506 OA
ATOM     16  H   UNL     1      24.969  49.511   8.921  0.00  0.00    +0.292 HD
ENDBRANCH  14  15
TORSDOF 2
ENDMDL
