MODEL 1
REMARK VINA RESULT:    -9.277      0.000      0.000
REMARK INTER + INTRA:         -14.782
REMARK INTER:                 -13.344
REMARK INTRA:                  -1.438
REMARK UNBOUND:                -1.438
REMARK  Name = C:\Users\HP\Downloads\Anthraquinone_pdb\AD31.pdb
REMARK  14 active torsions:
REMARK  status: ('A' for Active; 'I' for Inactive)
REMARK    1  A    between atoms: O_1  and  C_13
REMARK    2  A    between atoms: O_2  and  C_20
REMARK    3  A    between atoms: O_4  and  C_28
REMARK    4  A    between atoms: O_5  and  C_29
REMARK    5  A    between atoms: O_8  and  C_40
REMARK    6  A    between atoms: O_8  and  C_45
REMARK    7  A    between atoms: O_10  and  C_42
REMARK    8  A    between atoms: O_11  and  C_44
REMARK    9  A    between atoms: O_11  and  C_46
REMARK   10  A    between atoms: C_13  and  C_16
REMARK   11  A    between atoms: C_21  and  C_36
REMARK   12  A    between atoms: C_27  and  C_40
REMARK   13  A    between atoms: C_38  and  C_43
REMARK   14  A    between atoms: C_41  and  C_44
REMARK                            x       y       z     vdW  Elec       q    Type
REMARK                         _______ _______ _______ _____ _____    ______ ____
ROOT
ATOM      2  C   UNL     1      25.055  59.146  26.378  0.00  0.00    +0.146 C 
ATOM     28  C   UNL     1      24.608  58.168  25.292  0.00  0.00    +0.007 A 
ATOM     29  C   UNL     1      23.664  57.166  25.597  0.00  0.00    +0.008 A 
ATOM     30  C   UNL     1      23.215  56.275  24.623  0.00  0.00    +0.004 A 
ATOM     31  C   UNL     1      23.700  56.367  23.324  0.00  0.00    +0.046 A 
ATOM     32  C   UNL     1      24.635  57.348  22.999  0.00  0.00    +0.128 A 
ATOM     35  C   UNL     1      25.088  58.244  23.979  0.00  0.00    +0.070 A 
ATOM     36  C   UNL     1      26.086  59.264  23.606  0.00  0.00    +0.198 C 
ATOM     37  C   UNL     1      26.673  60.127  24.651  0.00  0.00    +0.033 A 
ATOM     38  C   UNL     1      27.711  61.004  24.300  0.00  0.00    -0.022 A 
ATOM     39  C   UNL     1      28.264  61.102  22.909  0.00  0.00    +0.045 C 
ATOM     40  C   UNL     1      28.293  61.824  25.264  0.00  0.00    +0.104 A 
ATOM     45  C   UNL     1      27.843  61.774  26.578  0.00  0.00    +0.131 A 
ATOM     46  C   UNL     1      26.809  60.905  26.927  0.00  0.00    +0.054 A 
ATOM     49  O   UNL     1      26.434  59.388  22.437  0.00  0.00    -0.286 OA
ATOM     50  C   UNL     1      26.203  60.067  25.969  0.00  0.00    +0.007 A 
ENDROOT
BRANCH   2   3
ATOM      3  C   UNL     1      23.856  59.982  26.869  0.00  0.00    +0.035 A 
ATOM      4  C   UNL     1      23.416  61.051  26.092  0.00  0.00    +0.011 A 
ATOM      5  C   UNL     1      22.332  61.822  26.512  0.00  0.00    +0.013 A 
ATOM      6  C   UNL     1      21.684  61.522  27.717  0.00  0.00    +0.037 A 
ATOM      7  C   UNL     1      20.538  62.344  28.154  0.00  0.00    +0.195 C 
ATOM      8  C   UNL     1      19.864  62.016  29.426  0.00  0.00    +0.037 A 
ATOM      9  C   UNL     1      18.777  62.788  29.852  0.00  0.00    +0.058 A 
ATOM     10  C   UNL     1      18.134  62.486  31.053  0.00  0.00    +0.132 A 
ATOM     11  C   UNL     1      18.575  61.417  31.831  0.00  0.00    +0.104 A 
ATOM     16  C   UNL     1      19.658  60.646  31.411  0.00  0.00    -0.021 A 
ATOM     17  C   UNL     1      20.074  59.511  32.300  0.00  0.00    +0.045 C 
ATOM     20  C   UNL     1      20.305  60.944  30.206  0.00  0.00    +0.037 A 
ATOM     21  C   UNL     1      21.451  60.121  29.768  0.00  0.00    +0.198 C 
ATOM     22  O   UNL     1      21.843  59.179  30.443  0.00  0.00    -0.286 OA
ATOM     23  O   UNL     1      20.152  63.284  27.469  0.00  0.00    -0.287 OA
ATOM     24  C   UNL     1      22.126  60.450  28.495  0.00  0.00    +0.075 A 
ATOM     25  C   UNL     1      23.213  59.678  28.070  0.00  0.00    +0.135 A 
BRANCH  11  12
ATOM     12  C   UNL     1      17.888  61.119  33.085  0.00  0.00    +0.343 C 
ATOM     13  O   UNL     1      17.062  60.212  33.225  0.00  0.00    -0.245 OA
BRANCH  12  14
ATOM     14  O   UNL     1      18.278  61.971  34.080  0.00  0.00    -0.464 OA
ATOM     15  C   UNL     1      17.244  62.478  34.931  0.00  0.00    +0.280 C 
ENDBRANCH  12  14
ENDBRANCH  11  12
BRANCH  10  18
ATOM     18  O   UNL     1      17.078  63.253  31.446  0.00  0.00    -0.506 OA
ATOM     19  H   UNL     1      16.275  62.715  31.533  0.00  0.00    +0.292 HD
ENDBRANCH  10  18
BRANCH  25  26
ATOM     26  O   UNL     1      23.685  58.620  28.792  0.00  0.00    -0.506 OA
ATOM     27  H   UNL     1      23.181  58.501  29.609  0.00  0.00    +0.292 HD
ENDBRANCH  25  26
ENDBRANCH   2   3
BRANCH   2   1
ATOM      1  O   UNL     1      25.600  58.373  27.467  0.00  0.00    -0.375 OA
ATOM     51  H   UNL     1      25.632  58.914  28.273  0.00  0.00    +0.211 HD
ENDBRANCH   2   1
BRANCH  32  33
ATOM     33  O   UNL     1      25.075  57.369  21.709  0.00  0.00    -0.506 OA
ATOM     34  H   UNL     1      24.369  57.108  21.100  0.00  0.00    +0.292 HD
ENDBRANCH  32  33
BRANCH  40  41
ATOM     41  C   UNL     1      29.377  62.739  24.916  0.00  0.00    +0.343 C 
ATOM     42  O   UNL     1      30.576  62.477  25.051  0.00  0.00    -0.245 OA
BRANCH  41  43
ATOM     43  O   UNL     1      28.893  63.918  24.424  0.00  0.00    -0.464 OA
ATOM     44  C   UNL     1      29.602  65.106  24.793  0.00  0.00    +0.280 C 
ENDBRANCH  41  43
ENDBRANCH  40  41
BRANCH  45  47
ATOM     47  O   UNL     1      28.395  62.564  27.542  0.00  0.00    -0.506 OA
ATOM     48  H   UNL     1      28.905  62.009  28.157  0.00  0.00    +0.292 HD
ENDBRANCH  45  47
TORSDOF 10
ENDMDL
MODEL 2
REMARK VINA RESULT:    -8.890      3.430      5.742
REMARK INTER + INTRA:         -14.226
REMARK INTER:                 -13.340
REMARK INTRA:                  -0.886
REMARK UNBOUND:                -1.438
REMARK  Name = C:\Users\HP\Downloads\Anthraquinone_pdb\AD31.pdb
REMARK  14 active torsions:
REMARK  status: ('A' for Active; 'I' for Inactive)
REMARK    1  A    between atoms: O_1  and  C_13
REMARK    2  A    between atoms: O_2  and  C_20
REMARK    3  A    between atoms: O_4  and  C_28
REMARK    4  A    between atoms: O_5  and  C_29
REMARK    5  A    between atoms: O_8  and  C_40
REMARK    6  A    between atoms: O_8  and  C_45
REMARK    7  A    between atoms: O_10  and  C_42
REMARK    8  A    between atoms: O_11  and  C_44
REMARK    9  A    between atoms: O_11  and  C_46
REMARK   10  A    between atoms: C_13  and  C_16
REMARK   11  A    between atoms: C_21  and  C_36
REMARK   12  A    between atoms: C_27  and  C_40
REMARK   13  A    between atoms: C_38  and  C_43
REMARK   14  A    between atoms: C_41  and  C_44
REMARK                            x       y       z     vdW  Elec       q    Type
REMARK                         _______ _______ _______ _____ _____    ______ ____
ROOT
ATOM      2  C   UNL     1      21.464  55.546  27.804  0.00  0.00    +0.146 C 
ATOM     28  C   UNL     1      20.073  54.937  27.625  0.00  0.00    +0.007 A 
ATOM     29  C   UNL     1      19.551  54.081  28.617  0.00  0.00    +0.008 A 
ATOM     30  C   UNL     1      18.275  53.530  28.498  0.00  0.00    +0.004 A 
ATOM     31  C   UNL     1      17.495  53.824  27.386  0.00  0.00    +0.046 A 
ATOM     32  C   UNL     1      17.990  54.667  26.393  0.00  0.00    +0.128 A 
ATOM     35  C   UNL     1      19.274  55.220  26.512  0.00  0.00    +0.070 A 
ATOM     36  C   UNL     1      19.774  56.100  25.438  0.00  0.00    +0.198 C 
ATOM     37  C   UNL     1      21.169  56.582  25.479  0.00  0.00    +0.033 A 
ATOM     38  C   UNL     1      21.665  57.312  24.389  0.00  0.00    -0.022 A 
ATOM     39  C   UNL     1      20.847  57.621  23.169  0.00  0.00    +0.045 C 
ATOM     40  C   UNL     1      22.980  57.773  24.393  0.00  0.00    +0.104 A 
ATOM     45  C   UNL     1      23.803  57.509  25.482  0.00  0.00    +0.131 A 
ATOM     46  C   UNL     1      23.309  56.787  26.568  0.00  0.00    +0.054 A 
ATOM     49  O   UNL     1      19.039  56.420  24.511  0.00  0.00    -0.286 OA
ATOM     50  C   UNL     1      21.981  56.311  26.588  0.00  0.00    +0.007 A 
ENDROOT
BRANCH   2   3
ATOM      3  C   UNL     1      21.493  56.453  29.051  0.00  0.00    +0.035 A 
ATOM      4  C   UNL     1      22.328  56.113  30.113  0.00  0.00    +0.011 A 
ATOM      5  C   UNL     1      22.374  56.917  31.252  0.00  0.00    +0.013 A 
ATOM      6  C   UNL     1      21.580  58.068  31.329  0.00  0.00    +0.037 A 
ATOM      7  C   UNL     1      21.635  58.912  32.539  0.00  0.00    +0.195 C 
ATOM      8  C   UNL     1      20.792  60.123  32.607  0.00  0.00    +0.037 A 
ATOM      9  C   UNL     1      20.834  60.932  33.748  0.00  0.00    +0.058 A 
ATOM     10  C   UNL     1      20.041  62.078  33.822  0.00  0.00    +0.132 A 
ATOM     11  C   UNL     1      19.204  62.417  32.760  0.00  0.00    +0.104 A 
ATOM     16  C   UNL     1      19.159  61.613  31.621  0.00  0.00    -0.021 A 
ATOM     17  C   UNL     1      18.236  62.044  30.520  0.00  0.00    +0.045 C 
ATOM     20  C   UNL     1      19.954  60.464  31.542  0.00  0.00    +0.037 A 
ATOM     21  C   UNL     1      19.899  59.619  30.332  0.00  0.00    +0.198 C 
ATOM     22  O   UNL     1      19.170  59.910  29.393  0.00  0.00    -0.286 OA
ATOM     23  O   UNL     1      22.370  58.613  33.472  0.00  0.00    -0.287 OA
ATOM     24  C   UNL     1      20.743  58.407  30.264  0.00  0.00    +0.075 A 
ATOM     25  C   UNL     1      20.699  57.599  29.123  0.00  0.00    +0.135 A 
BRANCH  11  12
ATOM     12  C   UNL     1      18.383  63.620  32.859  0.00  0.00    +0.343 C 
ATOM     13  O   UNL     1      18.549  64.632  32.172  0.00  0.00    -0.245 OA
BRANCH  12  14
ATOM     14  O   UNL     1      17.408  63.480  33.806  0.00  0.00    -0.464 OA
ATOM     15  C   UNL     1      16.133  63.014  33.350  0.00  0.00    +0.280 C 
ENDBRANCH  12  14
ENDBRANCH  11  12
BRANCH  10  18
ATOM     18  O   UNL     1      20.100  62.849  34.944  0.00  0.00    -0.506 OA
ATOM     19  H   UNL     1      20.911  62.665  35.447  0.00  0.00    +0.292 HD
ENDBRANCH  10  18
BRANCH  25  26
ATOM     26  O   UNL     1      19.900  57.884  28.055  0.00  0.00    -0.506 OA
ATOM     27  H   UNL     1      19.052  58.253  28.341  0.00  0.00    +0.292 HD
ENDBRANCH  25  26
ENDBRANCH   2   3
BRANCH   2   1
ATOM      1  O   UNL     1      22.401  54.460  27.957  0.00  0.00    -0.375 OA
ATOM     51  H   UNL     1      21.922  53.625  28.087  0.00  0.00    +0.211 HD
ENDBRANCH   2   1
BRANCH  32  33
ATOM     33  O   UNL     1      17.174  54.900  25.325  0.00  0.00    -0.506 OA
ATOM     34  H   UNL     1      16.875  54.066  24.933  0.00  0.00    +0.292 HD
ENDBRANCH  32  33
BRANCH  40  41
ATOM     41  C   UNL     1      23.513  58.530  23.264  0.00  0.00    +0.343 C 
ATOM     42  O   UNL     1      24.241  58.051  22.388  0.00  0.00    -0.245 OA
BRANCH  41  43
ATOM     43  O   UNL     1      23.105  59.834  23.302  0.00  0.00    -0.464 OA
ATOM     44  C   UNL     1      24.110  60.812  23.588  0.00  0.00    +0.280 C 
ENDBRANCH  41  43
ENDBRANCH  40  41
BRANCH  45  47
ATOM     47  O   UNL     1      25.093  57.947  25.512  0.00  0.00    -0.506 OA
ATOM     48  H   UNL     1      25.678  57.240  25.187  0.00  0.00    +0.292 HD
ENDBRANCH  45  47
TORSDOF 10
ENDMDL
MODEL 3
REMARK VINA RESULT:    -8.773      3.365      5.316
REMARK INTER + INTRA:         -14.058
REMARK INTER:                 -12.921
REMARK INTRA:                  -1.137
REMARK UNBOUND:                -1.438
REMARK  Name = C:\Users\HP\Downloads\Anthraquinone_pdb\AD31.pdb
REMARK  14 active torsions:
REMARK  status: ('A' for Active; 'I' for Inactive)
REMARK    1  A    between atoms: O_1  and  C_13
REMARK    2  A    between atoms: O_2  and  C_20
REMARK    3  A    between atoms: O_4  and  C_28
REMARK    4  A    between atoms: O_5  and  C_29
REMARK    5  A    between atoms: O_8  and  C_40
REMARK    6  A    between atoms: O_8  and  C_45
REMARK    7  A    between atoms: O_10  and  C_42
REMARK    8  A    between atoms: O_11  and  C_44
REMARK    9  A    between atoms: O_11  and  C_46
REMARK   10  A    between atoms: C_13  and  C_16
REMARK   11  A    between atoms: C_21  and  C_36
REMARK   12  A    between atoms: C_27  and  C_40
REMARK   13  A    between atoms: C_38  and  C_43
REMARK   14  A    between atoms: C_41  and  C_44
REMARK                            x       y       z     vdW  Elec       q    Type
REMARK                         _______ _______ _______ _____ _____    ______ ____
ROOT
ATOM      2  C   UNL     1      21.414  57.808  29.228  0.00  0.00    +0.146 C 
ATOM     28  C   UNL     1      21.174  56.330  28.922  0.00  0.00    +0.007 A 
ATOM     29  C   UNL     1      20.843  55.443  29.967  0.00  0.00    +0.008 A 
ATOM     30  C   UNL     1      20.591  54.094  29.719  0.00  0.00    +0.004 A 
ATOM     31  C   UNL     1      20.665  53.603  28.420  0.00  0.00    +0.046 A 
ATOM     32  C   UNL     1      20.991  54.461  27.372  0.00  0.00    +0.128 A 
ATOM     35  C   UNL     1      21.246  55.818  27.622  0.00  0.00    +0.070 A 
ATOM     36  C   UNL     1      21.599  56.697  26.491  0.00  0.00    +0.198 C 
ATOM     37  C   UNL     1      22.001  58.094  26.751  0.00  0.00    +0.033 A 
ATOM     38  C   UNL     1      22.455  58.878  25.679  0.00  0.00    -0.022 A 
ATOM     39  C   UNL     1      22.563  58.361  24.275  0.00  0.00    +0.045 C 
ATOM     40  C   UNL     1      22.850  60.197  25.893  0.00  0.00    +0.104 A 
ATOM     45  C   UNL     1      22.794  60.738  27.172  0.00  0.00    +0.131 A 
ATOM     46  C   UNL     1      22.339  59.960  28.236  0.00  0.00    +0.054 A 
ATOM     49  O   UNL     1      21.571  56.267  25.343  0.00  0.00    -0.286 OA
ATOM     50  C   UNL     1      21.932  58.624  28.045  0.00  0.00    +0.007 A 
ENDROOT
BRANCH   2   3
ATOM      3  C   UNL     1      20.131  58.451  29.793  0.00  0.00    +0.035 A 
ATOM      4  C   UNL     1      18.895  58.033  29.303  0.00  0.00    +0.011 A 
ATOM      5  C   UNL     1      17.719  58.597  29.798  0.00  0.00    +0.013 A 
ATOM      6  C   UNL     1      17.780  59.584  30.789  0.00  0.00    +0.037 A 
ATOM      7  C   UNL     1      16.529  60.176  31.306  0.00  0.00    +0.195 C 
ATOM      8  C   UNL     1      16.608  61.216  32.351  0.00  0.00    +0.037 A 
ATOM      9  C   UNL     1      15.430  61.786  32.850  0.00  0.00    +0.058 A 
ATOM     10  C   UNL     1      15.494  62.770  33.837  0.00  0.00    +0.132 A 
ATOM     11  C   UNL     1      16.730  63.189  34.327  0.00  0.00    +0.104 A 
ATOM     16  C   UNL     1      17.905  62.624  33.832  0.00  0.00    -0.021 A 
ATOM     17  C   UNL     1      19.197  63.125  34.409  0.00  0.00    +0.045 C 
ATOM     20  C   UNL     1      17.846  61.635  32.843  0.00  0.00    +0.037 A 
ATOM     21  C   UNL     1      19.097  61.043  32.326  0.00  0.00    +0.198 C 
ATOM     22  O   UNL     1      20.186  61.402  32.751  0.00  0.00    -0.286 OA
ATOM     23  O   UNL     1      15.444  59.807  30.875  0.00  0.00    -0.287 OA
ATOM     24  C   UNL     1      19.018  60.002  31.280  0.00  0.00    +0.075 A 
ATOM     25  C   UNL     1      20.196  59.434  30.781  0.00  0.00    +0.135 A 
BRANCH  11  12
ATOM     12  C   UNL     1      16.773  64.220  35.359  0.00  0.00    +0.343 C 
ATOM     13  O   UNL     1      16.858  63.987  36.569  0.00  0.00    -0.245 OA
BRANCH  12  14
ATOM     14  O   UNL     1      16.710  65.472  34.815  0.00  0.00    -0.464 OA
ATOM     15  C   UNL     1      15.781  66.384  35.411  0.00  0.00    +0.280 C 
ENDBRANCH  12  14
ENDBRANCH  11  12
BRANCH  10  18
ATOM     18  O   UNL     1      14.333  63.309  34.306  0.00  0.00    -0.506 OA
ATOM     19  H   UNL     1      13.717  62.612  34.584  0.00  0.00    +0.292 HD
ENDBRANCH  10  18
BRANCH  25  26
ATOM     26  O   UNL     1      21.432  59.805  31.225  0.00  0.00    -0.506 OA
ATOM     27  H   UNL     1      22.117  59.586  30.576  0.00  0.00    +0.292 HD
ENDBRANCH  25  26
ENDBRANCH   2   3
BRANCH   2   1
ATOM      1  O   UNL     1      22.478  57.888  30.198  0.00  0.00    -0.375 OA
ATOM     51  H   UNL     1      22.120  57.760  31.093  0.00  0.00    +0.211 HD
ENDBRANCH   2   1
BRANCH  32  33
ATOM     33  O   UNL     1      21.058  53.907  26.127  0.00  0.00    -0.506 OA
ATOM     34  H   UNL     1      20.738  52.992  26.140  0.00  0.00    +0.292 HD
ENDBRANCH  32  33
BRANCH  40  41
ATOM     41  C   UNL     1      23.330  61.025  24.789  0.00  0.00    +0.343 C 
ATOM     42  O   UNL     1      24.494  61.028  24.379  0.00  0.00    -0.245 OA
BRANCH  41  43
ATOM     43  O   UNL     1      22.325  61.793  24.272  0.00  0.00    -0.464 OA
ATOM     44  C   UNL     1      22.337  61.994  22.854  0.00  0.00    +0.280 C 
ENDBRANCH  41  43
ENDBRANCH  40  41
BRANCH  45  47
ATOM     47  O   UNL     1      23.175  62.025  27.410  0.00  0.00    -0.506 OA
ATOM     48  H   UNL     1      24.042  62.183  26.996  0.00  0.00    +0.292 HD
ENDBRANCH  45  47
TORSDOF 10
ENDMDL
MODEL 4
REMARK VINA RESULT:    -8.295      3.975      8.320
REMARK INTER + INTRA:         -13.370
REMARK INTER:                 -11.954
REMARK INTRA:                  -1.416
REMARK UNBOUND:                -1.438
REMARK  Name = C:\Users\HP\Downloads\Anthraquinone_pdb\AD31.pdb
REMARK  14 active torsions:
REMARK  status: ('A' for Active; 'I' for Inactive)
REMARK    1  A    between atoms: O_1  and  C_13
REMARK    2  A    between atoms: O_2  and  C_20
REMARK    3  A    between atoms: O_4  and  C_28
REMARK    4  A    between atoms: O_5  and  C_29
REMARK    5  A    between atoms: O_8  and  C_40
REMARK    6  A    between atoms: O_8  and  C_45
REMARK    7  A    between atoms: O_10  and  C_42
REMARK    8  A    between atoms: O_11  and  C_44
REMARK    9  A    between atoms: O_11  and  C_46
REMARK   10  A    between atoms: C_13  and  C_16
REMARK   11  A    between atoms: C_21  and  C_36
REMARK   12  A    between atoms: C_27  and  C_40
REMARK   13  A    between atoms: C_38  and  C_43
REMARK   14  A    between atoms: C_41  and  C_44
REMARK                            x       y       z     vdW  Elec       q    Type
REMARK                         _______ _______ _______ _____ _____    ______ ____
ROOT
ATOM      2  C   UNL     1      20.127  59.161  29.194  0.00  0.00    +0.146 C 
ATOM     28  C   UNL     1      21.573  59.282  28.714  0.00  0.00    +0.007 A 
ATOM     29  C   UNL     1      22.242  60.520  28.811  0.00  0.00    +0.008 A 
ATOM     30  C   UNL     1      23.569  60.659  28.407  0.00  0.00    +0.004 A 
ATOM     31  C   UNL     1      24.256  59.563  27.898  0.00  0.00    +0.046 A 
ATOM     32  C   UNL     1      23.615  58.330  27.791  0.00  0.00    +0.128 A 
ATOM     35  C   UNL     1      22.280  58.191  28.196  0.00  0.00    +0.070 A 
ATOM     36  C   UNL     1      21.626  56.875  28.060  0.00  0.00    +0.198 C 
ATOM     37  C   UNL     1      20.186  56.741  28.355  0.00  0.00    +0.033 A 
ATOM     38  C   UNL     1      19.554  55.514  28.100  0.00  0.00    -0.022 A 
ATOM     39  C   UNL     1      20.272  54.326  27.529  0.00  0.00    +0.045 C 
ATOM     40  C   UNL     1      18.193  55.359  28.357  0.00  0.00    +0.104 A 
ATOM     45  C   UNL     1      17.460  56.422  28.870  0.00  0.00    +0.131 A 
ATOM     46  C   UNL     1      18.089  57.641  29.127  0.00  0.00    +0.054 A 
ATOM     49  O   UNL     1      22.274  55.900  27.695  0.00  0.00    -0.286 OA
ATOM     50  C   UNL     1      19.465  57.822  28.876  0.00  0.00    +0.007 A 
ENDROOT
BRANCH   2   3
ATOM      3  C   UNL     1      20.042  59.448  30.707  0.00  0.00    +0.035 A 
ATOM      4  C   UNL     1      20.935  58.810  31.565  0.00  0.00    +0.011 A 
ATOM      5  C   UNL     1      20.881  59.053  32.938  0.00  0.00    +0.013 A 
ATOM      6  C   UNL     1      19.928  59.939  33.455  0.00  0.00    +0.037 A 
ATOM      7  C   UNL     1      19.877  60.189  34.909  0.00  0.00    +0.195 C 
ATOM      8  C   UNL     1      18.868  61.126  35.441  0.00  0.00    +0.037 A 
ATOM      9  C   UNL     1      18.808  61.372  36.818  0.00  0.00    +0.058 A 
ATOM     10  C   UNL     1      17.857  62.255  37.329  0.00  0.00    +0.132 A 
ATOM     11  C   UNL     1      16.963  62.893  36.471  0.00  0.00    +0.104 A 
ATOM     16  C   UNL     1      17.018  62.650  35.098  0.00  0.00    -0.021 A 
ATOM     17  C   UNL     1      16.025  63.374  34.238  0.00  0.00    +0.045 C 
ATOM     20  C   UNL     1      17.972  61.766  34.580  0.00  0.00    +0.037 A 
ATOM     21  C   UNL     1      18.022  61.516  33.126  0.00  0.00    +0.198 C 
ATOM     22  O   UNL     1      17.244  62.073  32.364  0.00  0.00    -0.286 OA
ATOM     23  O   UNL     1      20.663  59.628  35.663  0.00  0.00    -0.287 OA
ATOM     24  C   UNL     1      19.033  60.578  32.594  0.00  0.00    +0.075 A 
ATOM     25  C   UNL     1      19.091  60.332  31.218  0.00  0.00    +0.135 A 
BRANCH  11  12
ATOM     12  C   UNL     1      15.976  63.812  37.028  0.00  0.00    +0.343 C 
ATOM     13  O   UNL     1      14.790  63.525  37.220  0.00  0.00    -0.245 OA
BRANCH  12  14
ATOM     14  O   UNL     1      16.532  65.029  37.309  0.00  0.00    -0.464 OA
ATOM     15  C   UNL     1      15.629  66.134  37.426  0.00  0.00    +0.280 C 
ENDBRANCH  12  14
ENDBRANCH  11  12
BRANCH  10  18
ATOM     18  O   UNL     1      17.820  62.477  38.673  0.00  0.00    -0.506 OA
ATOM     19  H   UNL     1      18.672  62.256  39.083  0.00  0.00    +0.292 HD
ENDBRANCH  10  18
BRANCH  25  26
ATOM     26  O   UNL     1      18.241  60.929  30.332  0.00  0.00    -0.506 OA
ATOM     27  H   UNL     1      18.387  60.601  29.432  0.00  0.00    +0.292 HD
ENDBRANCH  25  26
ENDBRANCH   2   3
BRANCH   2   1
ATOM      1  O   UNL     1      19.340  60.122  28.462  0.00  0.00    -0.375 OA
ATOM     51  H   UNL     1      19.210  60.921  28.998  0.00  0.00    +0.211 HD
ENDBRANCH   2   1
BRANCH  32  33
ATOM     33  O   UNL     1      24.348  57.304  27.270  0.00  0.00    -0.506 OA
ATOM     34  H   UNL     1      25.081  57.071  27.859  0.00  0.00    +0.292 HD
ENDBRANCH  32  33
BRANCH  40  41
ATOM     41  C   UNL     1      17.520  54.091  28.093  0.00  0.00    +0.343 C 
ATOM     42  O   UNL     1      17.694  53.061  28.753  0.00  0.00    -0.245 OA
BRANCH  41  43
ATOM     43  O   UNL     1      16.676  54.189  27.023  0.00  0.00    -0.464 OA
ATOM     44  C   UNL     1      17.184  53.740  25.762  0.00  0.00    +0.280 C 
ENDBRANCH  41  43
ENDBRANCH  40  41
BRANCH  45  47
ATOM     47  O   UNL     1      16.128  56.298  29.130  0.00  0.00    -0.506 OA
ATOM     48  H   UNL     1      15.777  57.160  29.418  0.00  0.00    +0.292 HD
ENDBRANCH  45  47
TORSDOF 10
ENDMDL
MODEL 5
REMARK VINA RESULT:    -8.110      2.389      3.906
REMARK INTER + INTRA:         -13.103
REMARK INTER:                 -11.801
REMARK INTRA:                  -1.302
REMARK UNBOUND:                -1.438
REMARK  Name = C:\Users\HP\Downloads\Anthraquinone_pdb\AD31.pdb
REMARK  14 active torsions:
REMARK  status: ('A' for Active; 'I' for Inactive)
REMARK    1  A    between atoms: O_1  and  C_13
REMARK    2  A    between atoms: O_2  and  C_20
REMARK    3  A    between atoms: O_4  and  C_28
REMARK    4  A    between atoms: O_5  and  C_29
REMARK    5  A    between atoms: O_8  and  C_40
REMARK    6  A    between atoms: O_8  and  C_45
REMARK    7  A    between atoms: O_10  and  C_42
REMARK    8  A    between atoms: O_11  and  C_44
REMARK    9  A    between atoms: O_11  and  C_46
REMARK   10  A    between atoms: C_13  and  C_16
REMARK   11  A    between atoms: C_21  and  C_36
REMARK   12  A    between atoms: C_27  and  C_40
REMARK   13  A    between atoms: C_38  and  C_43
REMARK   14  A    between atoms: C_41  and  C_44
REMARK                            x       y       z     vdW  Elec       q    Type
REMARK                         _______ _______ _______ _____ _____    ______ ____
ROOT
ATOM      2  C   UNL     1      22.057  57.785  28.395  0.00  0.00    +0.146 C 
ATOM     28  C   UNL     1      21.056  56.832  27.742  0.00  0.00    +0.007 A 
ATOM     29  C   UNL     1      20.015  56.274  28.513  0.00  0.00    +0.008 A 
ATOM     30  C   UNL     1      19.070  55.422  27.943  0.00  0.00    +0.004 A 
ATOM     31  C   UNL     1      19.144  55.111  26.590  0.00  0.00    +0.046 A 
ATOM     32  C   UNL     1      20.164  55.651  25.809  0.00  0.00    +0.128 A 
ATOM     35  C   UNL     1      21.116  56.507  26.383  0.00  0.00    +0.070 A 
ATOM     36  C   UNL     1      22.189  57.053  25.531  0.00  0.00    +0.198 C 
ATOM     37  C   UNL     1      23.275  57.845  26.142  0.00  0.00    +0.033 A 
ATOM     38  C   UNL     1      24.353  58.249  25.340  0.00  0.00    -0.022 A 
ATOM     39  C   UNL     1      24.463  57.906  23.883  0.00  0.00    +0.045 C 
ATOM     40  C   UNL     1      25.398  58.989  25.890  0.00  0.00    +0.104 A 
ATOM     45  C   UNL     1      25.372  59.328  27.237  0.00  0.00    +0.131 A 
ATOM     46  C   UNL     1      24.299  58.930  28.034  0.00  0.00    +0.054 A 
ATOM     49  O   UNL     1      22.186  56.842  24.323  0.00  0.00    -0.286 OA
ATOM     50  C   UNL     1      23.229  58.182  27.501  0.00  0.00    +0.007 A 
ENDROOT
BRANCH   2   3
ATOM      3  C   UNL     1      21.334  59.046  28.912  0.00  0.00    +0.035 A 
ATOM      4  C   UNL     1      21.111  60.103  28.032  0.00  0.00    +0.011 A 
ATOM      5  C   UNL     1      20.457  61.254  28.473  0.00  0.00    +0.013 A 
ATOM      6  C   UNL     1      20.025  61.348  29.801  0.00  0.00    +0.037 A 
ATOM      7  C   UNL     1      19.335  62.571  30.259  0.00  0.00    +0.195 C 
ATOM      8  C   UNL     1      18.884  62.656  31.663  0.00  0.00    +0.037 A 
ATOM      9  C   UNL     1      18.229  63.810  32.110  0.00  0.00    +0.058 A 
ATOM     10  C   UNL     1      17.800  63.900  33.435  0.00  0.00    +0.132 A 
ATOM     11  C   UNL     1      18.024  62.843  34.315  0.00  0.00    +0.104 A 
ATOM     16  C   UNL     1      18.676  61.692  33.873  0.00  0.00    -0.021 A 
ATOM     17  C   UNL     1      18.880  60.597  34.878  0.00  0.00    +0.045 C 
ATOM     20  C   UNL     1      19.108  61.596  32.545  0.00  0.00    +0.037 A 
ATOM     21  C   UNL     1      19.797  60.374  32.087  0.00  0.00    +0.198 C 
ATOM     22  O   UNL     1      19.996  59.439  32.852  0.00  0.00    -0.286 OA
ATOM     23  O   UNL     1      19.139  63.499  29.485  0.00  0.00    -0.287 OA
ATOM     24  C   UNL     1      20.249  60.288  30.682  0.00  0.00    +0.075 A 
ATOM     25  C   UNL     1      20.904  59.135  30.237  0.00  0.00    +0.135 A 
BRANCH  11  12
ATOM     12  C   UNL     1      17.567  62.960  35.696  0.00  0.00    +0.343 C 
ATOM     13  O   UNL     1      18.275  63.345  36.632  0.00  0.00    -0.245 OA
BRANCH  12  14
ATOM     14  O   UNL     1      16.257  62.589  35.820  0.00  0.00    -0.464 OA
ATOM     15  C   UNL     1      15.390  63.514  36.486  0.00  0.00    +0.280 C 
ENDBRANCH  12  14
ENDBRANCH  11  12
BRANCH  10  18
ATOM     18  O   UNL     1      17.165  65.034  33.845  0.00  0.00    -0.506 OA
ATOM     19  H   UNL     1      16.207  64.965  33.701  0.00  0.00    +0.292 HD
ENDBRANCH  10  18
BRANCH  25  26
ATOM     26  O   UNL     1      21.149  58.070  31.054  0.00  0.00    -0.506 OA
ATOM     27  H   UNL     1      22.067  58.069  31.362  0.00  0.00    +0.292 HD
ENDBRANCH  25  26
ENDBRANCH   2   3
BRANCH   2   1
ATOM      1  O   UNL     1      22.678  57.084  29.492  0.00  0.00    -0.375 OA
ATOM     51  H   UNL     1      22.061  56.428  29.857  0.00  0.00    +0.211 HD
ENDBRANCH   2   1
BRANCH  32  33
ATOM     33  O   UNL     1      20.181  55.292  24.493  0.00  0.00    -0.506 OA
ATOM     34  H   UNL     1      20.141  54.329  24.399  0.00  0.00    +0.292 HD
ENDBRANCH  32  33
BRANCH  40  41
ATOM     41  C   UNL     1      26.529  59.413  25.069  0.00  0.00    +0.343 C 
ATOM     42  O   UNL     1      27.599  58.801  24.991  0.00  0.00    -0.245 OA
BRANCH  41  43
ATOM     43  O   UNL     1      26.252  60.573  24.401  0.00  0.00    -0.464 OA
ATOM     44  C   UNL     1      26.930  60.774  23.157  0.00  0.00    +0.280 C 
ENDBRANCH  41  43
ENDBRANCH  40  41
BRANCH  45  47
ATOM     47  O   UNL     1      26.381  60.051  27.800  0.00  0.00    -0.506 OA
ATOM     48  H   UNL     1      26.025  60.894  28.131  0.00  0.00    +0.292 HD
ENDBRANCH  45  47
TORSDOF 10
ENDMDL
MODEL 6
REMARK VINA RESULT:    -7.723     27.510     30.824
REMARK INTER + INTRA:         -12.547
REMARK INTER:                 -11.098
REMARK INTRA:                  -1.449
REMARK UNBOUND:                -1.438
REMARK  Name = C:\Users\HP\Downloads\Anthraquinone_pdb\AD31.pdb
REMARK  14 active torsions:
REMARK  status: ('A' for Active; 'I' for Inactive)
REMARK    1  A    between atoms: O_1  and  C_13
REMARK    2  A    between atoms: O_2  and  C_20
REMARK    3  A    between atoms: O_4  and  C_28
REMARK    4  A    between atoms: O_5  and  C_29
REMARK    5  A    between atoms: O_8  and  C_40
REMARK    6  A    between atoms: O_8  and  C_45
REMARK    7  A    between atoms: O_10  and  C_42
REMARK    8  A    between atoms: O_11  and  C_44
REMARK    9  A    between atoms: O_11  and  C_46
REMARK   10  A    between atoms: C_13  and  C_16
REMARK   11  A    between atoms: C_21  and  C_36
REMARK   12  A    between atoms: C_27  and  C_40
REMARK   13  A    between atoms: C_38  and  C_43
REMARK   14  A    between atoms: C_41  and  C_44
REMARK                            x       y       z     vdW  Elec       q    Type
REMARK                         _______ _______ _______ _____ _____    ______ ____
ROOT
ATOM      2  C   UNL     1      15.481  68.119  -1.971  0.00  0.00    +0.146 C 
ATOM     28  C   UNL     1      15.275  66.606  -2.024  0.00  0.00    +0.007 A 
ATOM     29  C   UNL     1      16.362  65.742  -1.780  0.00  0.00    +0.008 A 
ATOM     30  C   UNL     1      16.203  64.357  -1.795  0.00  0.00    +0.004 A 
ATOM     31  C   UNL     1      14.953  63.805  -2.053  0.00  0.00    +0.046 A 
ATOM     32  C   UNL     1      13.864  64.640  -2.298  0.00  0.00    +0.128 A 
ATOM     35  C   UNL     1      14.025  66.033  -2.285  0.00  0.00    +0.070 A 
ATOM     36  C   UNL     1      12.854  66.889  -2.559  0.00  0.00    +0.198 C 
ATOM     37  C   UNL     1      13.030  68.349  -2.682  0.00  0.00    +0.033 A 
ATOM     38  C   UNL     1      11.932  69.134  -3.067  0.00  0.00    -0.022 A 
ATOM     39  C   UNL     1      10.581  68.557  -3.373  0.00  0.00    +0.045 C 
ATOM     40  C   UNL     1      12.068  70.514  -3.202  0.00  0.00    +0.104 A 
ATOM     45  C   UNL     1      13.296  71.116  -2.953  0.00  0.00    +0.131 A 
ATOM     46  C   UNL     1      14.387  70.337  -2.566  0.00  0.00    +0.054 A 
ATOM     49  O   UNL     1      11.743  66.389  -2.695  0.00  0.00    -0.286 OA
ATOM     50  C   UNL     1      14.273  68.939  -2.421  0.00  0.00    +0.007 A 
ENDROOT
BRANCH   2   3
ATOM      3  C   UNL     1      15.913  68.549  -0.554  0.00  0.00    +0.035 A 
ATOM      4  C   UNL     1      15.202  68.068   0.543  0.00  0.00    +0.011 A 
ATOM      5  C   UNL     1      15.573  68.440   1.835  0.00  0.00    +0.013 A 
ATOM      6  C   UNL     1      16.663  69.297   2.031  0.00  0.00    +0.037 A 
ATOM      7  C   UNL     1      17.048  69.686   3.403  0.00  0.00    +0.195 C 
ATOM      8  C   UNL     1      18.200  70.590   3.594  0.00  0.00    +0.037 A 
ATOM      9  C   UNL     1      18.575  70.967   4.889  0.00  0.00    +0.058 A 
ATOM     10  C   UNL     1      19.661  71.821   5.081  0.00  0.00    +0.132 A 
ATOM     11  C   UNL     1      20.373  72.303   3.983  0.00  0.00    +0.104 A 
ATOM     16  C   UNL     1      20.002  71.930   2.692  0.00  0.00    -0.021 A 
ATOM     17  C   UNL     1      20.816  72.487   1.561  0.00  0.00    +0.045 C 
ATOM     20  C   UNL     1      18.914  71.072   2.494  0.00  0.00    +0.037 A 
ATOM     21  C   UNL     1      18.528  70.683   1.123  0.00  0.00    +0.198 C 
ATOM     22  O   UNL     1      19.149  71.098   0.153  0.00  0.00    -0.286 OA
ATOM     23  O   UNL     1      16.422  69.262   4.366  0.00  0.00    -0.287 OA
ATOM     24  C   UNL     1      17.376  69.778   0.931  0.00  0.00    +0.075 A 
ATOM     25  C   UNL     1      17.001  69.403  -0.364  0.00  0.00    +0.135 A 
BRANCH  11  12
ATOM     12  C   UNL     1      21.506  73.196   4.207  0.00  0.00    +0.343 C 
ATOM     13  O   UNL     1      21.505  74.399   3.930  0.00  0.00    -0.245 OA
BRANCH  12  14
ATOM     14  O   UNL     1      22.563  72.530   4.761  0.00  0.00    -0.464 OA
ATOM     15  C   UNL     1      23.719  72.362   3.933  0.00  0.00    +0.280 C 
ENDBRANCH  12  14
ENDBRANCH  11  12
BRANCH  10  18
ATOM     18  O   UNL     1      20.007  72.173   6.351  0.00  0.00    -0.506 OA
ATOM     19  H   UNL     1      19.636  73.041   6.582  0.00  0.00    +0.292 HD
ENDBRANCH  10  18
BRANCH  25  26
ATOM     26  O   UNL     1      17.662  69.843  -1.474  0.00  0.00    -0.506 OA
ATOM     27  H   UNL     1      17.053  69.977  -2.214  0.00  0.00    +0.292 HD
ENDBRANCH  25  26
ENDBRANCH   2   3
BRANCH   2   1
ATOM      1  O   UNL     1      16.507  68.456  -2.927  0.00  0.00    -0.375 OA
ATOM     51  H   UNL     1      16.820  67.652  -3.373  0.00  0.00    +0.211 HD
ENDBRANCH   2   1
BRANCH  32  33
ATOM     33  O   UNL     1      12.672  64.029  -2.557  0.00  0.00    -0.506 OA
ATOM     34  H   UNL     1      12.358  64.250  -3.446  0.00  0.00    +0.292 HD
ENDBRANCH  32  33
BRANCH  40  41
ATOM     41  C   UNL     1      10.937  71.343  -3.607  0.00  0.00    +0.343 C 
ATOM     42  O   UNL     1      10.551  71.470  -4.773  0.00  0.00    -0.245 OA
BRANCH  41  43
ATOM     43  O   UNL     1      10.362  71.959  -2.531  0.00  0.00    -0.464 OA
ATOM     44  C   UNL     1       8.931  71.976  -2.490  0.00  0.00    +0.280 C 
ENDBRANCH  41  43
ENDBRANCH  40  41
BRANCH  45  47
ATOM     47  O   UNL     1      13.458  72.463  -3.078  0.00  0.00    -0.506 OA
ATOM     48  H   UNL     1      14.377  72.652  -3.334  0.00  0.00    +0.292 HD
ENDBRANCH  45  47
TORSDOF 10
ENDMDL
MODEL 7
REMARK VINA RESULT:    -7.614     27.713     31.220
REMARK INTER + INTRA:         -12.391
REMARK INTER:                 -10.847
REMARK INTRA:                  -1.543
REMARK UNBOUND:                -1.438
REMARK  Name = C:\Users\HP\Downloads\Anthraquinone_pdb\AD31.pdb
REMARK  14 active torsions:
REMARK  status: ('A' for Active; 'I' for Inactive)
REMARK    1  A    between atoms: O_1  and  C_13
REMARK    2  A    between atoms: O_2  and  C_20
REMARK    3  A    between atoms: O_4  and  C_28
REMARK    4  A    between atoms: O_5  and  C_29
REMARK    5  A    between atoms: O_8  and  C_40
REMARK    6  A    between atoms: O_8  and  C_45
REMARK    7  A    between atoms: O_10  and  C_42
REMARK    8  A    between atoms: O_11  and  C_44
REMARK    9  A    between atoms: O_11  and  C_46
REMARK   10  A    between atoms: C_13  and  C_16
REMARK   11  A    between atoms: C_21  and  C_36
REMARK   12  A    between atoms: C_27  and  C_40
REMARK   13  A    between atoms: C_38  and  C_43
REMARK   14  A    between atoms: C_41  and  C_44
REMARK                            x       y       z     vdW  Elec       q    Type
REMARK                         _______ _______ _______ _____ _____    ______ ____
ROOT
ATOM      2  C   UNL     1      14.594  66.675  -2.340  0.00  0.00    +0.146 C 
ATOM     28  C   UNL     1      14.861  65.171  -2.288  0.00  0.00    +0.007 A 
ATOM     29  C   UNL     1      16.184  64.698  -2.165  0.00  0.00    +0.008 A 
ATOM     30  C   UNL     1      16.460  63.333  -2.089  0.00  0.00    +0.004 A 
ATOM     31  C   UNL     1      15.419  62.412  -2.132  0.00  0.00    +0.046 A 
ATOM     32  C   UNL     1      14.104  62.857  -2.254  0.00  0.00    +0.128 A 
ATOM     35  C   UNL     1      13.826  64.229  -2.333  0.00  0.00    +0.070 A 
ATOM     36  C   UNL     1      12.424  64.667  -2.472  0.00  0.00    +0.198 C 
ATOM     37  C   UNL     1      12.123  66.095  -2.691  0.00  0.00    +0.033 A 
ATOM     38  C   UNL     1      10.797  66.477  -2.948  0.00  0.00    -0.022 A 
ATOM     39  C   UNL     1       9.663  65.497  -3.021  0.00  0.00    +0.045 C 
ATOM     40  C   UNL     1      10.482  67.816  -3.168  0.00  0.00    +0.104 A 
ATOM     45  C   UNL     1      11.485  68.778  -3.133  0.00  0.00    +0.131 A 
ATOM     46  C   UNL     1      12.802  68.400  -2.873  0.00  0.00    +0.054 A 
ATOM     49  O   UNL     1      11.514  63.847  -2.418  0.00  0.00    -0.286 OA
ATOM     50  C   UNL     1      13.146  67.051  -2.646  0.00  0.00    +0.007 A 
ENDROOT
BRANCH   2   3
ATOM      3  C   UNL     1      15.047  67.342  -1.024  0.00  0.00    +0.035 A 
ATOM      4  C   UNL     1      14.398  67.005   0.161  0.00  0.00    +0.011 A 
ATOM      5  C   UNL     1      14.790  67.592   1.365  0.00  0.00    +0.013 A 
ATOM      6  C   UNL     1      15.836  68.522   1.382  0.00  0.00    +0.037 A 
ATOM      7  C   UNL     1      16.243  69.139   2.660  0.00  0.00    +0.195 C 
ATOM      8  C   UNL     1      17.349  70.118   2.663  0.00  0.00    +0.037 A 
ATOM      9  C   UNL     1      17.744  70.711   3.868  0.00  0.00    +0.058 A 
ATOM     10  C   UNL     1      18.787  71.638   3.881  0.00  0.00    +0.132 A 
ATOM     11  C   UNL     1      19.435  71.976   2.695  0.00  0.00    +0.104 A 
ATOM     16  C   UNL     1      19.044  71.388   1.492  0.00  0.00    -0.021 A 
ATOM     17  C   UNL     1      19.790  71.801   0.258  0.00  0.00    +0.045 C 
ATOM     20  C   UNL     1      17.999  70.457   1.474  0.00  0.00    +0.037 A 
ATOM     21  C   UNL     1      17.593  69.839   0.196  0.00  0.00    +0.198 C 
ATOM     22  O   UNL     1      18.158  70.128  -0.851  0.00  0.00    -0.286 OA
ATOM     23  O   UNL     1      15.672  68.842   3.702  0.00  0.00    -0.287 OA
ATOM     24  C   UNL     1      16.486  68.859   0.193  0.00  0.00    +0.075 A 
ATOM     25  C   UNL     1      16.091  68.268  -1.013  0.00  0.00    +0.135 A 
BRANCH  11  12
ATOM     12  C   UNL     1      20.524  72.949   2.732  0.00  0.00    +0.343 C 
ATOM     13  O   UNL     1      20.405  74.136   2.412  0.00  0.00    -0.245 OA
BRANCH  12  14
ATOM     14  O   UNL     1      21.687  72.378   3.166  0.00  0.00    -0.464 OA
ATOM     15  C   UNL     1      22.853  72.613   2.370  0.00  0.00    +0.280 C 
ENDBRANCH  12  14
ENDBRANCH  11  12
BRANCH  10  18
ATOM     18  O   UNL     1      19.152  72.201   5.067  0.00  0.00    -0.506 OA
ATOM     19  H   UNL     1      18.871  71.647   5.814  0.00  0.00    +0.292 HD
ENDBRANCH  10  18
BRANCH  25  26
ATOM     26  O   UNL     1      16.691  68.561  -2.203  0.00  0.00    -0.506 OA
ATOM     27  H   UNL     1      16.346  69.385  -2.575  0.00  0.00    +0.292 HD
ENDBRANCH  25  26
ENDBRANCH   2   3
BRANCH   2   1
ATOM      1  O   UNL     1      15.337  67.214  -3.452  0.00  0.00    -0.375 OA
ATOM     51  H   UNL     1      15.824  66.503  -3.900  0.00  0.00    +0.211 HD
ENDBRANCH   2   1
BRANCH  32  33
ATOM     33  O   UNL     1      13.137  61.896  -2.304  0.00  0.00    -0.506 OA
ATOM     34  H   UNL     1      12.262  62.295  -2.421  0.00  0.00    +0.292 HD
ENDBRANCH  32  33
BRANCH  40  41
ATOM     41  C   UNL     1       9.108  68.228  -3.441  0.00  0.00    +0.343 C 
ATOM     42  O   UNL     1       8.530  68.048  -4.517  0.00  0.00    -0.245 OA
BRANCH  41  43
ATOM     43  O   UNL     1       8.547  68.838  -2.354  0.00  0.00    -0.464 OA
ATOM     44  C   UNL     1       7.545  68.097  -1.650  0.00  0.00    +0.280 C 
ENDBRANCH  41  43
ENDBRANCH  40  41
BRANCH  45  47
ATOM     47  O   UNL     1      11.205  70.095  -3.345  0.00  0.00    -0.506 OA
ATOM     48  H   UNL     1      11.832  70.640  -2.838  0.00  0.00    +0.292 HD
ENDBRANCH  45  47
TORSDOF 10
ENDMDL
MODEL 8
REMARK VINA RESULT:    -7.443     25.323     29.288
REMARK INTER + INTRA:         -12.145
REMARK INTER:                 -10.739
REMARK INTRA:                  -1.405
REMARK UNBOUND:                -1.438
REMARK  Name = C:\Users\HP\Downloads\Anthraquinone_pdb\AD31.pdb
REMARK  14 active torsions:
REMARK  status: ('A' for Active; 'I' for Inactive)
REMARK    1  A    between atoms: O_1  and  C_13
REMARK    2  A    between atoms: O_2  and  C_20
REMARK    3  A    between atoms: O_4  and  C_28
REMARK    4  A    between atoms: O_5  and  C_29
REMARK    5  A    between atoms: O_8  and  C_40
REMARK    6  A    between atoms: O_8  and  C_45
REMARK    7  A    between atoms: O_10  and  C_42
REMARK    8  A    between atoms: O_11  and  C_44
REMARK    9  A    between atoms: O_11  and  C_46
REMARK   10  A    between atoms: C_13  and  C_16
REMARK   11  A    between atoms: C_21  and  C_36
REMARK   12  A    between atoms: C_27  and  C_40
REMARK   13  A    between atoms: C_38  and  C_43
REMARK   14  A    between atoms: C_41  and  C_44
REMARK                            x       y       z     vdW  Elec       q    Type
REMARK                         _______ _______ _______ _____ _____    ______ ____
ROOT
ATOM      2  C   UNL     1       4.888  47.023  13.815  0.00  0.00    +0.146 C 
ATOM     28  C   UNL     1       4.305  47.703  15.054  0.00  0.00    +0.007 A 
ATOM     29  C   UNL     1       4.901  48.881  15.552  0.00  0.00    +0.008 A 
ATOM     30  C   UNL     1       4.379  49.541  16.664  0.00  0.00    +0.004 A 
ATOM     31  C   UNL     1       3.249  49.038  17.301  0.00  0.00    +0.046 A 
ATOM     32  C   UNL     1       2.645  47.875  16.827  0.00  0.00    +0.128 A 
ATOM     35  C   UNL     1       3.171  47.211  15.709  0.00  0.00    +0.070 A 
ATOM     36  C   UNL     1       2.514  45.976  15.239  0.00  0.00    +0.198 C 
ATOM     37  C   UNL     1       3.129  45.191  14.150  0.00  0.00    +0.033 A 
ATOM     38  C   UNL     1       2.561  43.956  13.802  0.00  0.00    -0.022 A 
ATOM     39  C   UNL     1       1.357  43.385  14.491  0.00  0.00    +0.045 C 
ATOM     40  C   UNL     1       3.124  43.187  12.786  0.00  0.00    +0.104 A 
ATOM     45  C   UNL     1       4.251  43.644  12.115  0.00  0.00    +0.131 A 
ATOM     46  C   UNL     1       4.814  44.873  12.458  0.00  0.00    +0.054 A 
ATOM     49  O   UNL     1       1.469  45.598  15.756  0.00  0.00    -0.286 OA
ATOM     50  C   UNL     1       4.262  45.671  13.482  0.00  0.00    +0.007 A 
ENDROOT
BRANCH   2   3
ATOM      3  C   UNL     1       4.794  47.965  12.597  0.00  0.00    +0.035 A 
ATOM      4  C   UNL     1       3.591  48.618  12.341  0.00  0.00    +0.011 A 
ATOM      5  C   UNL     1       3.480  49.476  11.247  0.00  0.00    +0.013 A 
ATOM      6  C   UNL     1       4.580  49.682  10.404  0.00  0.00    +0.037 A 
ATOM      7  C   UNL     1       4.453  50.591   9.247  0.00  0.00    +0.195 C 
ATOM      8  C   UNL     1       5.620  50.799   8.367  0.00  0.00    +0.037 A 
ATOM      9  C   UNL     1       5.513  51.657   7.267  0.00  0.00    +0.058 A 
ATOM     10  C   UNL     1       6.610  51.859   6.429  0.00  0.00    +0.132 A 
ATOM     11  C   UNL     1       7.814  51.204   6.685  0.00  0.00    +0.104 A 
ATOM     16  C   UNL     1       7.924  50.348   7.779  0.00  0.00    -0.021 A 
ATOM     17  C   UNL     1       9.251  49.680   7.991  0.00  0.00    +0.045 C 
ATOM     20  C   UNL     1       6.827  50.143   8.624  0.00  0.00    +0.037 A 
ATOM     21  C   UNL     1       6.954  49.234   9.780  0.00  0.00    +0.198 C 
ATOM     22  O   UNL     1       8.007  48.657  10.015  0.00  0.00    -0.286 OA
ATOM     23  O   UNL     1       3.394  51.166   9.023  0.00  0.00    -0.287 OA
ATOM     24  C   UNL     1       5.785  49.026  10.661  0.00  0.00    +0.075 A 
ATOM     25  C   UNL     1       5.893  48.166  11.760  0.00  0.00    +0.135 A 
BRANCH  11  12
ATOM     12  C   UNL     1       8.949  51.430   5.795  0.00  0.00    +0.343 C 
ATOM     13  O   UNL     1       9.276  50.667   4.880  0.00  0.00    -0.245 OA
BRANCH  12  14
ATOM     14  O   UNL     1       9.599  52.592   6.102  0.00  0.00    -0.464 OA
ATOM     15  C   UNL     1      10.426  53.154   5.077  0.00  0.00    +0.280 C 
ENDBRANCH  12  14
ENDBRANCH  11  12
BRANCH  10  18
ATOM     18  O   UNL     1       6.480  52.700   5.364  0.00  0.00    -0.506 OA
ATOM     19  H   UNL     1       6.889  53.560   5.553  0.00  0.00    +0.292 HD
ENDBRANCH  10  18
BRANCH  25  26
ATOM     26  O   UNL     1       7.047  47.501  12.058  0.00  0.00    -0.506 OA
ATOM     27  H   UNL     1       7.811  47.920  11.637  0.00  0.00    +0.292 HD
ENDBRANCH  25  26
ENDBRANCH   2   3
BRANCH   2   1
ATOM      1  O   UNL     1       6.267  46.710  14.096  0.00  0.00    -0.375 OA
ATOM     51  H   UNL     1       6.321  46.103  14.853  0.00  0.00    +0.211 HD
ENDBRANCH   2   1
BRANCH  32  33
ATOM     33  O   UNL     1       1.550  47.434  17.510  0.00  0.00    -0.506 OA
ATOM     34  H   UNL     1       1.469  47.889  18.362  0.00  0.00    +0.292 HD
ENDBRANCH  32  33
BRANCH  40  41
ATOM     41  C   UNL     1       2.547  41.898  12.414  0.00  0.00    +0.343 C 
ATOM     42  O   UNL     1       2.590  40.887  13.123  0.00  0.00    -0.245 OA
BRANCH  41  43
ATOM     43  O   UNL     1       1.957  41.953  11.183  0.00  0.00    -0.464 OA
ATOM     44  C   UNL     1       0.570  41.603  11.120  0.00  0.00    +0.280 C 
ENDBRANCH  41  43
ENDBRANCH  40  41
BRANCH  45  47
ATOM     47  O   UNL     1       4.823  42.912  11.118  0.00  0.00    -0.506 OA
ATOM     48  H   UNL     1       4.271  42.131  10.938  0.00  0.00    +0.292 HD
ENDBRANCH  45  47
TORSDOF 10
ENDMDL
MODEL 9
REMARK VINA RESULT:    -7.244     26.606     30.251
REMARK INTER + INTRA:         -11.858
REMARK INTER:                 -10.396
REMARK INTRA:                  -1.462
REMARK UNBOUND:                -1.438
REMARK  Name = C:\Users\HP\Downloads\Anthraquinone_pdb\AD31.pdb
REMARK  14 active torsions:
REMARK  status: ('A' for Active; 'I' for Inactive)
REMARK    1  A    between atoms: O_1  and  C_13
REMARK    2  A    between atoms: O_2  and  C_20
REMARK    3  A    between atoms: O_4  and  C_28
REMARK    4  A    between atoms: O_5  and  C_29
REMARK    5  A    between atoms: O_8  and  C_40
REMARK    6  A    between atoms: O_8  and  C_45
REMARK    7  A    between atoms: O_10  and  C_42
REMARK    8  A    between atoms: O_11  and  C_44
REMARK    9  A    between atoms: O_11  and  C_46
REMARK   10  A    between atoms: C_13  and  C_16
REMARK   11  A    between atoms: C_21  and  C_36
REMARK   12  A    between atoms: C_27  and  C_40
REMARK   13  A    between atoms: C_38  and  C_43
REMARK   14  A    between atoms: C_41  and  C_44
REMARK                            x       y       z     vdW  Elec       q    Type
REMARK                         _______ _______ _______ _____ _____    ______ ____
ROOT
ATOM      2  C   UNL     1       7.963  51.428   6.673  0.00  0.00    +0.146 C 
ATOM     28  C   UNL     1       7.088  52.565   6.146  0.00  0.00    +0.007 A 
ATOM     29  C   UNL     1       7.646  53.537   5.289  0.00  0.00    +0.008 A 
ATOM     30  C   UNL     1       6.870  54.573   4.769  0.00  0.00    +0.004 A 
ATOM     31  C   UNL     1       5.521  54.658   5.093  0.00  0.00    +0.046 A 
ATOM     32  C   UNL     1       4.949  53.710   5.939  0.00  0.00    +0.128 A 
ATOM     35  C   UNL     1       5.730  52.669   6.464  0.00  0.00    +0.070 A 
ATOM     36  C   UNL     1       5.097  51.687   7.365  0.00  0.00    +0.198 C 
ATOM     37  C   UNL     1       5.928  50.666   8.031  0.00  0.00    +0.033 A 
ATOM     38  C   UNL     1       5.333  49.822   8.981  0.00  0.00    -0.022 A 
ATOM     39  C   UNL     1       3.884  49.912   9.363  0.00  0.00    +0.045 C 
ATOM     40  C   UNL     1       6.093  48.854   9.635  0.00  0.00    +0.104 A 
ATOM     45  C   UNL     1       7.446  48.725   9.346  0.00  0.00    +0.131 A 
ATOM     46  C   UNL     1       8.038  49.561   8.399  0.00  0.00    +0.054 A 
ATOM     49  O   UNL     1       3.888  51.726   7.567  0.00  0.00    -0.286 OA
ATOM     50  C   UNL     1       7.289  50.546   7.723  0.00  0.00    +0.007 A 
ENDROOT
BRANCH   2   3
ATOM      3  C   UNL     1       8.473  50.562   5.503  0.00  0.00    +0.035 A 
ATOM      4  C   UNL     1       7.547  49.967   4.650  0.00  0.00    +0.011 A 
ATOM      5  C   UNL     1       7.982  49.181   3.583  0.00  0.00    +0.013 A 
ATOM      6  C   UNL     1       9.353  48.988   3.369  0.00  0.00    +0.037 A 
ATOM      7  C   UNL     1       9.805  48.153   2.238  0.00  0.00    +0.195 C 
ATOM      8  C   UNL     1      11.253  47.959   2.024  0.00  0.00    +0.037 A 
ATOM      9  C   UNL     1      11.694  47.169   0.956  0.00  0.00    +0.058 A 
ATOM     10  C   UNL     1      13.061  46.979   0.746  0.00  0.00    +0.132 A 
ATOM     11  C   UNL     1      13.988  47.573   1.601  0.00  0.00    +0.104 A 
ATOM     16  C   UNL     1      13.552  48.360   2.667  0.00  0.00    -0.021 A 
ATOM     17  C   UNL     1      14.608  48.967   3.542  0.00  0.00    +0.045 C 
ATOM     20  C   UNL     1      12.182  48.555   2.880  0.00  0.00    +0.037 A 
ATOM     21  C   UNL     1      11.730  49.390   4.011  0.00  0.00    +0.198 C 
ATOM     22  O   UNL     1      12.536  49.918   4.765  0.00  0.00    -0.286 OA
ATOM     23  O   UNL     1       8.989  47.631   1.488  0.00  0.00    -0.287 OA
ATOM     24  C   UNL     1      10.281  49.585   4.225  0.00  0.00    +0.075 A 
ATOM     25  C   UNL     1       9.840  50.373   5.294  0.00  0.00    +0.135 A 
BRANCH  11  12
ATOM     12  C   UNL     1      15.412  47.360   1.363  0.00  0.00    +0.343 C 
ATOM     13  O   UNL     1      16.148  48.168   0.787  0.00  0.00    -0.245 OA
BRANCH  12  14
ATOM     14  O   UNL     1      15.825  46.156   1.860  0.00  0.00    -0.464 OA
ATOM     15  C   UNL     1      17.235  45.906   1.847  0.00  0.00    +0.280 C 
ENDBRANCH  12  14
ENDBRANCH  11  12
BRANCH  10  18
ATOM     18  O   UNL     1      13.465  46.205  -0.300  0.00  0.00    -0.506 OA
ATOM     19  H   UNL     1      13.692  46.755  -1.068  0.00  0.00    +0.292 HD
ENDBRANCH  10  18
BRANCH  25  26
ATOM     26  O   UNL     1      10.703  50.979   6.161  0.00  0.00    -0.506 OA
ATOM     27  H   UNL     1      10.245  51.627   6.715  0.00  0.00    +0.292 HD
ENDBRANCH  25  26
ENDBRANCH   2   3
BRANCH   2   1
ATOM      1  O   UNL     1       9.074  52.019   7.376  0.00  0.00    -0.375 OA
ATOM     51  H   UNL     1       9.719  52.370   6.739  0.00  0.00    +0.211 HD
ENDBRANCH   2   1
BRANCH  32  33
ATOM     33  O   UNL     1       3.624  53.865   6.224  0.00  0.00    -0.506 OA
ATOM     34  H   UNL     1       3.188  53.004   6.312  0.00  0.00    +0.292 HD
ENDBRANCH  32  33
BRANCH  40  41
ATOM     41  C   UNL     1       5.489  47.971  10.629  0.00  0.00    +0.343 C 
ATOM     42  O   UNL     1       4.881  46.932  10.356  0.00  0.00    -0.245 OA
BRANCH  41  43
ATOM     43  O   UNL     1       5.682  48.444  11.897  0.00  0.00    -0.464 OA
ATOM     44  C   UNL     1       5.833  47.465  12.930  0.00  0.00    +0.280 C 
ENDBRANCH  41  43
ENDBRANCH  40  41
BRANCH  45  47
ATOM     47  O   UNL     1       8.213  47.788   9.971  0.00  0.00    -0.506 OA
ATOM     48  H   UNL     1       7.659  47.283  10.592  0.00  0.00    +0.292 HD
ENDBRANCH  45  47
TORSDOF 10
ENDMDL
