MODEL 1
REMARK VINA RESULT:    -7.960      0.000      0.000
REMARK INTER + INTRA:         -10.846
REMARK INTER:                 -10.287
REMARK INTRA:                  -0.558
REMARK UNBOUND:                -0.558
REMARK  Name = C:\Users\HP\Downloads\Anthraquinone_pdb\AD33.pdb
REMARK  10 active torsions:
REMARK  status: ('A' for Active; 'I' for Inactive)
REMARK    1  A    between atoms: O_1  and  C_18
REMARK    2  A    between atoms: O_4  and  C_20
REMARK    3  A    between atoms: O_5  and  C_21
REMARK    4  A    between atoms: O_6  and  C_26
REMARK    5  A    between atoms: O_6  and  C_32
REMARK    6  A    between atoms: O_7  and  C_24
REMARK    7  A    between atoms: C_10  and  C_13
REMARK    8  A    between atoms: C_12  and  C_22
REMARK    9  A    between atoms: C_23  and  C_30
REMARK   10  A    between atoms: C_30  and  C_31
REMARK                            x       y       z     vdW  Elec       q    Type
REMARK                         _______ _______ _______ _____ _____    ______ ____
ROOT
ATOM      3  C   UNL     1      20.961  61.196  28.311  0.00  0.00    +0.129 A 
ATOM      4  C   UNL     1      21.631  60.198  27.604  0.00  0.00    +0.050 A 
ATOM      5  C   UNL     1      21.293  58.860  27.795  0.00  0.00    -0.038 A 
ATOM      6  C   UNL     1      22.045  57.830  27.011  0.00  0.00    +0.044 C 
ATOM      7  C   UNL     1      20.284  58.514  28.694  0.00  0.00    +0.004 A 
ATOM     23  C   UNL     1      19.609  59.513  29.406  0.00  0.00    +0.045 A 
ATOM     24  C   UNL     1      18.541  59.139  30.356  0.00  0.00    +0.195 C 
ATOM     25  C   UNL     1      17.836  60.203  31.099  0.00  0.00    +0.037 A 
ATOM     26  C   UNL     1      16.821  59.861  32.001  0.00  0.00    +0.012 A 
ATOM     27  C   UNL     1      16.150  60.860  32.706  0.00  0.00    +0.004 A 
ATOM     28  C   UNL     1      16.489  62.198  32.515  0.00  0.00    +0.046 A 
ATOM     29  C   UNL     1      17.500  62.543  31.618  0.00  0.00    +0.128 A 
ATOM     32  C   UNL     1      18.175  61.544  30.907  0.00  0.00    +0.075 A 
ATOM     33  C   UNL     1      19.243  61.919  29.958  0.00  0.00    +0.202 C 
ATOM     34  O   UNL     1      19.540  63.095  29.789  0.00  0.00    -0.286 OA
ATOM     35  O   UNL     1      18.209  57.978  30.559  0.00  0.00    -0.287 OA
ATOM     36  C   UNL     1      19.947  60.854  29.215  0.00  0.00    +0.075 A 
ENDROOT
BRANCH   7   8
ATOM      8  C   UNL     1      19.991  57.096  28.838  0.00  0.00    +0.067 A 
ATOM      9  C   UNL     1      20.801  56.300  29.645  0.00  0.00    +0.132 A 
ATOM     10  C   UNL     1      20.522  54.940  29.784  0.00  0.00    +0.092 A 
ATOM     11  C   UNL     1      19.433  54.380  29.116  0.00  0.00    +0.138 A 
ATOM     12  C   UNL     1      18.624  55.180  28.308  0.00  0.00    +0.101 A 
ATOM     20  C   UNL     1      18.903  56.539  28.168  0.00  0.00    +0.142 A 
BRANCH  12  13
ATOM     13  C   UNL     1      17.486  54.590  27.610  0.00  0.00    +0.167 C 
ATOM     14  C   UNL     1      17.675  53.961  26.237  0.00  0.00    +0.092 C 
ATOM     15  O   UNL     1      16.348  54.589  28.115  0.00  0.00    -0.292 OA
ENDBRANCH  12  13
BRANCH  11  16
ATOM     16  O   UNL     1      19.179  53.049  29.265  0.00  0.00    -0.494 OA
ATOM     17  C   UNL     1      20.289  52.208  29.569  0.00  0.00    +0.277 C 
ENDBRANCH  11  16
BRANCH   9  18
ATOM     18  O   UNL     1      21.872  56.820  30.310  0.00  0.00    -0.506 OA
ATOM     19  H   UNL     1      22.616  56.982  29.709  0.00  0.00    +0.292 HD
ENDBRANCH   9  18
BRANCH  20  21
ATOM     21  O   UNL     1      18.105  57.315  27.376  0.00  0.00    -0.505 OA
ATOM     22  H   UNL     1      17.168  57.107  27.514  0.00  0.00    +0.292 HD
ENDBRANCH  20  21
ENDBRANCH   7   8
BRANCH   3   1
ATOM      1  O   UNL     1      21.343  62.484  28.076  0.00  0.00    -0.506 OA
ATOM      2  H   UNL     1      21.475  62.947  28.921  0.00  0.00    +0.292 HD
ENDBRANCH   3   1
BRANCH  29  30
ATOM     30  O   UNL     1      17.778  63.870  31.481  0.00  0.00    -0.506 OA
ATOM     31  H   UNL     1      16.982  64.405  31.620  0.00  0.00    +0.292 HD
ENDBRANCH  29  30
TORSDOF 7
ENDMDL
MODEL 2
REMARK VINA RESULT:    -7.680     11.664     15.265
REMARK INTER + INTRA:         -10.483
REMARK INTER:                  -9.841
REMARK INTRA:                  -0.642
REMARK UNBOUND:                -0.558
REMARK  Name = C:\Users\HP\Downloads\Anthraquinone_pdb\AD33.pdb
REMARK  10 active torsions:
REMARK  status: ('A' for Active; 'I' for Inactive)
REMARK    1  A    between atoms: O_1  and  C_18
REMARK    2  A    between atoms: O_4  and  C_20
REMARK    3  A    between atoms: O_5  and  C_21
REMARK    4  A    between atoms: O_6  and  C_26
REMARK    5  A    between atoms: O_6  and  C_32
REMARK    6  A    between atoms: O_7  and  C_24
REMARK    7  A    between atoms: C_10  and  C_13
REMARK    8  A    between atoms: C_12  and  C_22
REMARK    9  A    between atoms: C_23  and  C_30
REMARK   10  A    between atoms: C_30  and  C_31
REMARK                            x       y       z     vdW  Elec       q    Type
REMARK                         _______ _______ _______ _____ _____    ______ ____
ROOT
ATOM      3  C   UNL     1       8.050  69.273  29.972  0.00  0.00    +0.129 A 
ATOM      4  C   UNL     1       9.068  68.346  29.749  0.00  0.00    +0.050 A 
ATOM      5  C   UNL     1       9.689  67.719  30.827  0.00  0.00    -0.038 A 
ATOM      6  C   UNL     1      10.777  66.734  30.530  0.00  0.00    +0.044 C 
ATOM      7  C   UNL     1       9.294  68.014  32.132  0.00  0.00    +0.004 A 
ATOM     23  C   UNL     1       8.272  68.943  32.360  0.00  0.00    +0.045 A 
ATOM     24  C   UNL     1       7.860  69.251  33.745  0.00  0.00    +0.195 C 
ATOM     25  C   UNL     1       6.779  70.231  33.971  0.00  0.00    +0.037 A 
ATOM     26  C   UNL     1       6.378  70.531  35.278  0.00  0.00    +0.012 A 
ATOM     27  C   UNL     1       5.357  71.455  35.500  0.00  0.00    +0.004 A 
ATOM     28  C   UNL     1       4.737  72.084  34.423  0.00  0.00    +0.046 A 
ATOM     29  C   UNL     1       5.134  71.789  33.118  0.00  0.00    +0.128 A 
ATOM     32  C   UNL     1       6.157  70.861  32.890  0.00  0.00    +0.075 A 
ATOM     33  C   UNL     1       6.569  70.555  31.505  0.00  0.00    +0.202 C 
ATOM     34  O   UNL     1       6.023  71.105  30.558  0.00  0.00    -0.286 OA
ATOM     35  O   UNL     1       8.375  68.727  34.724  0.00  0.00    -0.287 OA
ATOM     36  C   UNL     1       7.650  69.573  31.280  0.00  0.00    +0.075 A 
ENDROOT
BRANCH   7   8
ATOM      8  C   UNL     1       9.991  67.317  33.202  0.00  0.00    +0.067 A 
ATOM      9  C   UNL     1      11.206  67.811  33.674  0.00  0.00    +0.132 A 
ATOM     10  C   UNL     1      11.876  67.145  34.700  0.00  0.00    +0.092 A 
ATOM     11  C   UNL     1      11.331  65.986  35.251  0.00  0.00    +0.138 A 
ATOM     12  C   UNL     1      10.115  65.494  34.777  0.00  0.00    +0.101 A 
ATOM     20  C   UNL     1       9.444  66.159  33.751  0.00  0.00    +0.142 A 
BRANCH  12  13
ATOM     13  C   UNL     1       9.547  64.280  35.356  0.00  0.00    +0.167 C 
ATOM     14  C   UNL     1       8.995  64.297  36.775  0.00  0.00    +0.092 C 
ATOM     15  O   UNL     1       9.501  63.216  34.711  0.00  0.00    -0.292 OA
ENDBRANCH  12  13
BRANCH  11  16
ATOM     16  O   UNL     1      12.002  65.350  36.253  0.00  0.00    -0.494 OA
ATOM     17  C   UNL     1      13.199  64.661  35.894  0.00  0.00    +0.277 C 
ENDBRANCH  11  16
BRANCH   9  18
ATOM     18  O   UNL     1      11.764  68.942  33.154  0.00  0.00    -0.506 OA
ATOM     19  H   UNL     1      12.519  69.239  33.685  0.00  0.00    +0.292 HD
ENDBRANCH   9  18
BRANCH  20  21
ATOM     21  O   UNL     1       8.254  65.671  33.292  0.00  0.00    -0.505 OA
ATOM     22  H   UNL     1       7.513  66.226  33.584  0.00  0.00    +0.292 HD
ENDBRANCH  20  21
ENDBRANCH   7   8
BRANCH   3   1
ATOM      1  O   UNL     1       7.486  69.850  28.872  0.00  0.00    -0.506 OA
ATOM      2  H   UNL     1       7.233  70.767  29.076  0.00  0.00    +0.292 HD
ENDBRANCH   3   1
BRANCH  29  30
ATOM     30  O   UNL     1       4.484  72.441  32.112  0.00  0.00    -0.506 OA
ATOM     31  H   UNL     1       5.005  72.422  31.296  0.00  0.00    +0.292 HD
ENDBRANCH  29  30
TORSDOF 7
ENDMDL
MODEL 3
REMARK VINA RESULT:    -7.673     11.387     15.289
REMARK INTER + INTRA:         -10.474
REMARK INTER:                  -9.733
REMARK INTRA:                  -0.741
REMARK UNBOUND:                -0.558
REMARK  Name = C:\Users\HP\Downloads\Anthraquinone_pdb\AD33.pdb
REMARK  10 active torsions:
REMARK  status: ('A' for Active; 'I' for Inactive)
REMARK    1  A    between atoms: O_1  and  C_18
REMARK    2  A    between atoms: O_4  and  C_20
REMARK    3  A    between atoms: O_5  and  C_21
REMARK    4  A    between atoms: O_6  and  C_26
REMARK    5  A    between atoms: O_6  and  C_32
REMARK    6  A    between atoms: O_7  and  C_24
REMARK    7  A    between atoms: C_10  and  C_13
REMARK    8  A    between atoms: C_12  and  C_22
REMARK    9  A    between atoms: C_23  and  C_30
REMARK   10  A    between atoms: C_30  and  C_31
REMARK                            x       y       z     vdW  Elec       q    Type
REMARK                         _______ _______ _______ _____ _____    ______ ____
ROOT
ATOM      3  C   UNL     1       8.149  69.229  30.009  0.00  0.00    +0.129 A 
ATOM      4  C   UNL     1       9.233  68.391  29.743  0.00  0.00    +0.050 A 
ATOM      5  C   UNL     1       9.939  67.807  30.792  0.00  0.00    -0.038 A 
ATOM      6  C   UNL     1      11.093  66.918  30.449  0.00  0.00    +0.044 C 
ATOM      7  C   UNL     1       9.565  68.058  32.113  0.00  0.00    +0.004 A 
ATOM     23  C   UNL     1       8.478  68.897  32.385  0.00  0.00    +0.045 A 
ATOM     24  C   UNL     1       8.089  69.158  33.786  0.00  0.00    +0.195 C 
ATOM     25  C   UNL     1       6.940  70.044  34.058  0.00  0.00    +0.037 A 
ATOM     26  C   UNL     1       6.560  70.298  35.382  0.00  0.00    +0.012 A 
ATOM     27  C   UNL     1       5.475  71.133  35.648  0.00  0.00    +0.004 A 
ATOM     28  C   UNL     1       4.769  71.718  34.598  0.00  0.00    +0.046 A 
ATOM     29  C   UNL     1       5.145  71.469  33.278  0.00  0.00    +0.128 A 
ATOM     32  C   UNL     1       6.232  70.630  33.006  0.00  0.00    +0.075 A 
ATOM     33  C   UNL     1       6.622  70.371  31.605  0.00  0.00    +0.202 C 
ATOM     34  O   UNL     1       6.000  70.883  30.683  0.00  0.00    -0.286 OA
ATOM     35  O   UNL     1       8.679  68.669  34.742  0.00  0.00    -0.287 OA
ATOM     36  C   UNL     1       7.770  69.483  31.333  0.00  0.00    +0.075 A 
ENDROOT
BRANCH   7   8
ATOM      8  C   UNL     1      10.353  67.411  33.151  0.00  0.00    +0.067 A 
ATOM      9  C   UNL     1       9.963  66.166  33.642  0.00  0.00    +0.132 A 
ATOM     10  C   UNL     1      10.717  65.545  34.637  0.00  0.00    +0.092 A 
ATOM     11  C   UNL     1      11.858  66.169  35.140  0.00  0.00    +0.138 A 
ATOM     12  C   UNL     1      12.246  67.415  34.647  0.00  0.00    +0.101 A 
ATOM     20  C   UNL     1      11.493  68.038  33.652  0.00  0.00    +0.142 A 
BRANCH  12  13
ATOM     13  C   UNL     1      13.441  68.066  35.175  0.00  0.00    +0.167 C 
ATOM     14  C   UNL     1      13.404  68.736  36.542  0.00  0.00    +0.092 C 
ATOM     15  O   UNL     1      14.505  68.088  34.529  0.00  0.00    -0.292 OA
ENDBRANCH  12  13
BRANCH  11  16
ATOM     16  O   UNL     1      12.580  65.544  36.113  0.00  0.00    -0.494 OA
ATOM     17  C   UNL     1      13.329  64.393  35.726  0.00  0.00    +0.277 C 
ENDBRANCH  11  16
BRANCH   9  18
ATOM     18  O   UNL     1       8.852  65.533  33.170  0.00  0.00    -0.506 OA
ATOM     19  H   UNL     1       9.077  64.900  32.471  0.00  0.00    +0.292 HD
ENDBRANCH   9  18
BRANCH  20  21
ATOM     21  O   UNL     1      11.879  69.257  33.174  0.00  0.00    -0.505 OA
ATOM     22  H   UNL     1      11.466  69.442  32.315  0.00  0.00    +0.292 HD
ENDBRANCH  20  21
ENDBRANCH   7   8
BRANCH   3   1
ATOM      1  O   UNL     1       7.504  69.767  28.936  0.00  0.00    -0.506 OA
ATOM      2  H   UNL     1       7.077  69.060  28.422  0.00  0.00    +0.292 HD
ENDBRANCH   3   1
BRANCH  29  30
ATOM     30  O   UNL     1       4.410  72.073  32.302  0.00  0.00    -0.506 OA
ATOM     31  H   UNL     1       3.466  72.054  32.520  0.00  0.00    +0.292 HD
ENDBRANCH  29  30
TORSDOF 7
ENDMDL
MODEL 4
REMARK VINA RESULT:    -7.559      2.085      5.467
REMARK INTER + INTRA:         -10.327
REMARK INTER:                  -9.848
REMARK INTRA:                  -0.480
REMARK UNBOUND:                -0.558
REMARK  Name = C:\Users\HP\Downloads\Anthraquinone_pdb\AD33.pdb
REMARK  10 active torsions:
REMARK  status: ('A' for Active; 'I' for Inactive)
REMARK    1  A    between atoms: O_1  and  C_18
REMARK    2  A    between atoms: O_4  and  C_20
REMARK    3  A    between atoms: O_5  and  C_21
REMARK    4  A    between atoms: O_6  and  C_26
REMARK    5  A    between atoms: O_6  and  C_32
REMARK    6  A    between atoms: O_7  and  C_24
REMARK    7  A    between atoms: C_10  and  C_13
REMARK    8  A    between atoms: C_12  and  C_22
REMARK    9  A    between atoms: C_23  and  C_30
REMARK   10  A    between atoms: C_30  and  C_31
REMARK                            x       y       z     vdW  Elec       q    Type
REMARK                         _______ _______ _______ _____ _____    ______ ____
ROOT
ATOM      3  C   UNL     1      21.351  60.963  28.058  0.00  0.00    +0.129 A 
ATOM      4  C   UNL     1      20.475  60.578  29.074  0.00  0.00    +0.050 A 
ATOM      5  C   UNL     1      20.153  59.234  29.247  0.00  0.00    -0.038 A 
ATOM      6  C   UNL     1      19.207  58.878  30.352  0.00  0.00    +0.044 C 
ATOM      7  C   UNL     1      20.706  58.267  28.406  0.00  0.00    +0.004 A 
ATOM     23  C   UNL     1      21.585  58.649  27.386  0.00  0.00    +0.045 A 
ATOM     24  C   UNL     1      22.166  57.620  26.499  0.00  0.00    +0.195 C 
ATOM     25  C   UNL     1      23.093  58.036  25.428  0.00  0.00    +0.037 A 
ATOM     26  C   UNL     1      23.652  57.070  24.582  0.00  0.00    +0.012 A 
ATOM     27  C   UNL     1      24.529  57.454  23.568  0.00  0.00    +0.004 A 
ATOM     28  C   UNL     1      24.850  58.799  23.395  0.00  0.00    +0.046 A 
ATOM     29  C   UNL     1      24.296  59.765  24.235  0.00  0.00    +0.128 A 
ATOM     32  C   UNL     1      23.416  59.384  25.255  0.00  0.00    +0.075 A 
ATOM     33  C   UNL     1      22.835  60.413  26.139  0.00  0.00    +0.202 C 
ATOM     34  O   UNL     1      23.118  61.595  25.989  0.00  0.00    -0.286 OA
ATOM     35  O   UNL     1      21.913  56.426  26.611  0.00  0.00    -0.287 OA
ATOM     36  C   UNL     1      21.908  59.996  27.212  0.00  0.00    +0.075 A 
ENDROOT
BRANCH   7   8
ATOM      8  C   UNL     1      20.320  56.887  28.651  0.00  0.00    +0.067 A 
ATOM      9  C   UNL     1      21.187  56.036  29.336  0.00  0.00    +0.132 A 
ATOM     10  C   UNL     1      20.818  54.712  29.573  0.00  0.00    +0.092 A 
ATOM     11  C   UNL     1      19.585  54.241  29.124  0.00  0.00    +0.138 A 
ATOM     12  C   UNL     1      18.719  55.093  28.439  0.00  0.00    +0.101 A 
ATOM     20  C   UNL     1      19.087  56.418  28.202  0.00  0.00    +0.142 A 
BRANCH  12  13
ATOM     13  C   UNL     1      17.429  54.597  27.970  0.00  0.00    +0.167 C 
ATOM     14  C   UNL     1      17.323  53.906  26.618  0.00  0.00    +0.092 C 
ATOM     15  O   UNL     1      16.399  54.725  28.657  0.00  0.00    -0.292 OA
ENDBRANCH  12  13
BRANCH  11  16
ATOM     16  O   UNL     1      19.245  52.942  29.365  0.00  0.00    -0.494 OA
ATOM     17  C   UNL     1      20.304  52.048  29.702  0.00  0.00    +0.277 C 
ENDBRANCH  11  16
BRANCH   9  18
ATOM     18  O   UNL     1      22.399  56.469  29.786  0.00  0.00    -0.506 OA
ATOM     19  H   UNL     1      22.651  57.308  29.369  0.00  0.00    +0.292 HD
ENDBRANCH   9  18
BRANCH  20  21
ATOM     21  O   UNL     1      18.234  57.247  27.530  0.00  0.00    -0.505 OA
ATOM     22  H   UNL     1      18.471  58.178  27.668  0.00  0.00    +0.292 HD
ENDBRANCH  20  21
ENDBRANCH   7   8
BRANCH   3   1
ATOM      1  O   UNL     1      21.621  62.294  27.945  0.00  0.00    -0.506 OA
ATOM      2  H   UNL     1      22.326  62.540  28.569  0.00  0.00    +0.292 HD
ENDBRANCH   3   1
BRANCH  29  30
ATOM     30  O   UNL     1      24.654  61.060  24.008  0.00  0.00    -0.506 OA
ATOM     31  H   UNL     1      23.919  61.660  24.204  0.00  0.00    +0.292 HD
ENDBRANCH  29  30
TORSDOF 7
ENDMDL
MODEL 5
REMARK VINA RESULT:    -7.494      4.929      9.063
REMARK INTER + INTRA:         -10.243
REMARK INTER:                  -9.658
REMARK INTRA:                  -0.585
REMARK UNBOUND:                -0.558
REMARK  Name = C:\Users\HP\Downloads\Anthraquinone_pdb\AD33.pdb
REMARK  10 active torsions:
REMARK  status: ('A' for Active; 'I' for Inactive)
REMARK    1  A    between atoms: O_1  and  C_18
REMARK    2  A    between atoms: O_4  and  C_20
REMARK    3  A    between atoms: O_5  and  C_21
REMARK    4  A    between atoms: O_6  and  C_26
REMARK    5  A    between atoms: O_6  and  C_32
REMARK    6  A    between atoms: O_7  and  C_24
REMARK    7  A    between atoms: C_10  and  C_13
REMARK    8  A    between atoms: C_12  and  C_22
REMARK    9  A    between atoms: C_23  and  C_30
REMARK   10  A    between atoms: C_30  and  C_31
REMARK                            x       y       z     vdW  Elec       q    Type
REMARK                         _______ _______ _______ _____ _____    ______ ____
ROOT
ATOM      3  C   UNL     1      24.055  56.488  23.613  0.00  0.00    +0.129 A 
ATOM      4  C   UNL     1      23.050  56.144  24.518  0.00  0.00    +0.050 A 
ATOM      5  C   UNL     1      22.844  56.916  25.660  0.00  0.00    -0.038 A 
ATOM      6  C   UNL     1      21.754  56.500  26.597  0.00  0.00    +0.044 C 
ATOM      7  C   UNL     1      23.641  58.036  25.901  0.00  0.00    +0.004 A 
ATOM     23  C   UNL     1      24.650  58.384  24.995  0.00  0.00    +0.045 A 
ATOM     24  C   UNL     1      25.490  59.571  25.258  0.00  0.00    +0.195 C 
ATOM     25  C   UNL     1      26.549  59.928  24.294  0.00  0.00    +0.037 A 
ATOM     26  C   UNL     1      27.351  61.052  24.531  0.00  0.00    +0.012 A 
ATOM     27  C   UNL     1      28.353  61.396  23.624  0.00  0.00    +0.004 A 
ATOM     28  C   UNL     1      28.560  60.624  22.483  0.00  0.00    +0.046 A 
ATOM     29  C   UNL     1      27.764  59.503  22.243  0.00  0.00    +0.128 A 
ATOM     32  C   UNL     1      26.756  59.154  23.150  0.00  0.00    +0.075 A 
ATOM     33  C   UNL     1      25.918  57.967  22.887  0.00  0.00    +0.202 C 
ATOM     34  O   UNL     1      26.097  57.289  21.883  0.00  0.00    -0.286 OA
ATOM     35  O   UNL     1      25.349  60.280  26.247  0.00  0.00    -0.287 OA
ATOM     36  C   UNL     1      24.857  57.611  23.851  0.00  0.00    +0.075 A 
ENDROOT
BRANCH   7   8
ATOM      8  C   UNL     1      23.364  58.788  27.115  0.00  0.00    +0.067 A 
ATOM      9  C   UNL     1      24.119  58.554  28.263  0.00  0.00    +0.132 A 
ATOM     10  C   UNL     1      23.855  59.275  29.427  0.00  0.00    +0.092 A 
ATOM     11  C   UNL     1      22.836  60.228  29.441  0.00  0.00    +0.138 A 
ATOM     12  C   UNL     1      22.082  60.460  28.291  0.00  0.00    +0.101 A 
ATOM     20  C   UNL     1      22.346  59.740  27.126  0.00  0.00    +0.142 A 
BRANCH  12  13
ATOM     13  C   UNL     1      21.017  61.458  28.309  0.00  0.00    +0.167 C 
ATOM     14  C   UNL     1      19.788  61.247  29.182  0.00  0.00    +0.092 C 
ATOM     15  O   UNL     1      21.088  62.492  27.619  0.00  0.00    -0.292 OA
ENDBRANCH  12  13
BRANCH  11  16
ATOM     16  O   UNL     1      22.594  60.921  30.590  0.00  0.00    -0.494 OA
ATOM     17  C   UNL     1      22.320  60.156  31.762  0.00  0.00    +0.277 C 
ENDBRANCH  11  16
BRANCH   9  18
ATOM     18  O   UNL     1      25.120  57.629  28.279  0.00  0.00    -0.506 OA
ATOM     19  H   UNL     1      25.566  57.577  27.419  0.00  0.00    +0.292 HD
ENDBRANCH   9  18
BRANCH  20  21
ATOM     21  O   UNL     1      21.603  59.973  26.004  0.00  0.00    -0.505 OA
ATOM     22  H   UNL     1      22.173  60.173  25.244  0.00  0.00    +0.292 HD
ENDBRANCH  20  21
ENDBRANCH   7   8
BRANCH   3   1
ATOM      1  O   UNL     1      24.201  55.689  22.518  0.00  0.00    -0.506 OA
ATOM      2  H   UNL     1      23.580  55.967  21.823  0.00  0.00    +0.292 HD
ENDBRANCH   3   1
BRANCH  29  30
ATOM     30  O   UNL     1      28.021  58.795  21.108  0.00  0.00    -0.506 OA
ATOM     31  H   UNL     1      28.950  58.885  20.849  0.00  0.00    +0.292 HD
ENDBRANCH  29  30
TORSDOF 7
ENDMDL
MODEL 6
REMARK VINA RESULT:    -7.368      1.713      7.005
REMARK INTER + INTRA:         -10.081
REMARK INTER:                  -9.607
REMARK INTRA:                  -0.474
REMARK UNBOUND:                -0.558
REMARK  Name = C:\Users\HP\Downloads\Anthraquinone_pdb\AD33.pdb
REMARK  10 active torsions:
REMARK  status: ('A' for Active; 'I' for Inactive)
REMARK    1  A    between atoms: O_1  and  C_18
REMARK    2  A    between atoms: O_4  and  C_20
REMARK    3  A    between atoms: O_5  and  C_21
REMARK    4  A    between atoms: O_6  and  C_26
REMARK    5  A    between atoms: O_6  and  C_32
REMARK    6  A    between atoms: O_7  and  C_24
REMARK    7  A    between atoms: C_10  and  C_13
REMARK    8  A    between atoms: C_12  and  C_22
REMARK    9  A    between atoms: C_23  and  C_30
REMARK   10  A    between atoms: C_30  and  C_31
REMARK                            x       y       z     vdW  Elec       q    Type
REMARK                         _______ _______ _______ _____ _____    ______ ____
ROOT
ATOM      3  C   UNL     1      22.707  56.791  29.925  0.00  0.00    +0.129 A 
ATOM      4  C   UNL     1      23.185  58.070  30.211  0.00  0.00    +0.050 A 
ATOM      5  C   UNL     1      22.321  59.163  30.174  0.00  0.00    -0.038 A 
ATOM      6  C   UNL     1      22.888  60.512  30.487  0.00  0.00    +0.044 C 
ATOM      7  C   UNL     1      20.976  58.981  29.852  0.00  0.00    +0.004 A 
ATOM     23  C   UNL     1      20.493  57.699  29.565  0.00  0.00    +0.045 A 
ATOM     24  C   UNL     1      19.067  57.515  29.224  0.00  0.00    +0.195 C 
ATOM     25  C   UNL     1      18.569  56.158  28.925  0.00  0.00    +0.037 A 
ATOM     26  C   UNL     1      17.220  55.970  28.603  0.00  0.00    +0.012 A 
ATOM     27  C   UNL     1      16.742  54.691  28.320  0.00  0.00    +0.004 A 
ATOM     28  C   UNL     1      17.606  53.598  28.356  0.00  0.00    +0.046 A 
ATOM     29  C   UNL     1      18.952  53.780  28.676  0.00  0.00    +0.128 A 
ATOM     32  C   UNL     1      19.435  55.062  28.962  0.00  0.00    +0.075 A 
ATOM     33  C   UNL     1      20.861  55.245  29.301  0.00  0.00    +0.202 C 
ATOM     34  O   UNL     1      21.620  54.285  29.335  0.00  0.00    -0.286 OA
ATOM     35  O   UNL     1      18.269  58.444  29.178  0.00  0.00    -0.287 OA
ATOM     36  C   UNL     1      21.358  56.604  29.601  0.00  0.00    +0.075 A 
ENDROOT
BRANCH   7   8
ATOM      8  C   UNL     1      20.140  60.171  29.834  0.00  0.00    +0.067 A 
ATOM      9  C   UNL     1      20.153  61.011  28.721  0.00  0.00    +0.132 A 
ATOM     10  C   UNL     1      19.352  62.152  28.702  0.00  0.00    +0.092 A 
ATOM     11  C   UNL     1      18.540  62.452  29.796  0.00  0.00    +0.138 A 
ATOM     12  C   UNL     1      18.529  61.611  30.908  0.00  0.00    +0.101 A 
ATOM     20  C   UNL     1      19.330  60.469  30.928  0.00  0.00    +0.142 A 
BRANCH  12  13
ATOM     13  C   UNL     1      17.678  61.928  32.051  0.00  0.00    +0.167 C 
ATOM     14  C   UNL     1      18.222  62.769  33.198  0.00  0.00    +0.092 C 
ATOM     15  O   UNL     1      16.502  61.523  32.114  0.00  0.00    -0.292 OA
ENDBRANCH  12  13
BRANCH  11  16
ATOM     16  O   UNL     1      17.765  63.574  29.757  0.00  0.00    -0.494 OA
ATOM     17  C   UNL     1      18.379  64.799  30.152  0.00  0.00    +0.277 C 
ENDBRANCH  11  16
BRANCH   9  18
ATOM     18  O   UNL     1      20.937  60.743  27.639  0.00  0.00    -0.506 OA
ATOM     19  H   UNL     1      21.666  60.147  27.869  0.00  0.00    +0.292 HD
ENDBRANCH   9  18
BRANCH  20  21
ATOM     21  O   UNL     1      19.313  59.650  32.021  0.00  0.00    -0.505 OA
ATOM     22  H   UNL     1      19.928  58.907  31.910  0.00  0.00    +0.292 HD
ENDBRANCH  20  21
ENDBRANCH   7   8
BRANCH   3   1
ATOM      1  O   UNL     1      23.607  55.767  29.979  0.00  0.00    -0.506 OA
ATOM      2  H   UNL     1      24.169  55.782  29.185  0.00  0.00    +0.292 HD
ENDBRANCH   3   1
BRANCH  29  30
ATOM     30  O   UNL     1      19.739  52.668  28.693  0.00  0.00    -0.506 OA
ATOM     31  H   UNL     1      19.327  51.947  28.193  0.00  0.00    +0.292 HD
ENDBRANCH  29  30
TORSDOF 7
ENDMDL
MODEL 7
REMARK VINA RESULT:    -7.326      4.102      8.217
REMARK INTER + INTRA:         -10.026
REMARK INTER:                  -9.363
REMARK INTRA:                  -0.663
REMARK UNBOUND:                -0.558
REMARK  Name = C:\Users\HP\Downloads\Anthraquinone_pdb\AD33.pdb
REMARK  10 active torsions:
REMARK  status: ('A' for Active; 'I' for Inactive)
REMARK    1  A    between atoms: O_1  and  C_18
REMARK    2  A    between atoms: O_4  and  C_20
REMARK    3  A    between atoms: O_5  and  C_21
REMARK    4  A    between atoms: O_6  and  C_26
REMARK    5  A    between atoms: O_6  and  C_32
REMARK    6  A    between atoms: O_7  and  C_24
REMARK    7  A    between atoms: C_10  and  C_13
REMARK    8  A    between atoms: C_12  and  C_22
REMARK    9  A    between atoms: C_23  and  C_30
REMARK   10  A    between atoms: C_30  and  C_31
REMARK                            x       y       z     vdW  Elec       q    Type
REMARK                         _______ _______ _______ _____ _____    ______ ____
ROOT
ATOM      3  C   UNL     1      22.138  56.263  23.906  0.00  0.00    +0.129 A 
ATOM      4  C   UNL     1      21.091  55.993  24.788  0.00  0.00    +0.050 A 
ATOM      5  C   UNL     1      21.118  56.508  26.082  0.00  0.00    -0.038 A 
ATOM      6  C   UNL     1      19.970  56.185  26.987  0.00  0.00    +0.044 C 
ATOM      7  C   UNL     1      22.191  57.295  26.501  0.00  0.00    +0.004 A 
ATOM     23  C   UNL     1      23.243  57.569  25.618  0.00  0.00    +0.045 A 
ATOM     24  C   UNL     1      24.376  58.403  26.069  0.00  0.00    +0.195 C 
ATOM     25  C   UNL     1      25.478  58.685  25.128  0.00  0.00    +0.037 A 
ATOM     26  C   UNL     1      26.557  59.476  25.542  0.00  0.00    +0.012 A 
ATOM     27  C   UNL     1      27.602  59.748  24.659  0.00  0.00    +0.004 A 
ATOM     28  C   UNL     1      27.575  59.233  23.365  0.00  0.00    +0.046 A 
ATOM     29  C   UNL     1      26.503  58.444  22.948  0.00  0.00    +0.128 A 
ATOM     32  C   UNL     1      25.451  58.169  23.830  0.00  0.00    +0.075 A 
ATOM     33  C   UNL     1      24.320  57.334  23.380  0.00  0.00    +0.202 C 
ATOM     34  O   UNL     1      24.295  56.883  22.242  0.00  0.00    -0.286 OA
ATOM     35  O   UNL     1      24.446  58.877  27.196  0.00  0.00    -0.287 OA
ATOM     36  C   UNL     1      23.217  57.053  24.321  0.00  0.00    +0.075 A 
ENDROOT
BRANCH   7   8
ATOM      8  C   UNL     1      22.145  57.794  27.866  0.00  0.00    +0.067 A 
ATOM      9  C   UNL     1      21.650  59.072  28.120  0.00  0.00    +0.132 A 
ATOM     10  C   UNL     1      21.605  59.552  29.429  0.00  0.00    +0.092 A 
ATOM     11  C   UNL     1      22.055  58.754  30.481  0.00  0.00    +0.138 A 
ATOM     12  C   UNL     1      22.550  57.475  30.223  0.00  0.00    +0.101 A 
ATOM     20  C   UNL     1      22.596  56.994  28.915  0.00  0.00    +0.142 A 
BRANCH  12  13
ATOM     13  C   UNL     1      23.021  56.643  31.326  0.00  0.00    +0.167 C 
ATOM     14  C   UNL     1      22.037  55.784  32.109  0.00  0.00    +0.092 C 
ATOM     15  O   UNL     1      24.223  56.616  31.649  0.00  0.00    -0.292 OA
ENDBRANCH  12  13
BRANCH  11  16
ATOM     16  O   UNL     1      22.002  59.243  31.752  0.00  0.00    -0.494 OA
ATOM     17  C   UNL     1      20.736  59.709  32.215  0.00  0.00    +0.277 C 
ENDBRANCH  11  16
BRANCH   9  18
ATOM     18  O   UNL     1      21.204  59.874  27.113  0.00  0.00    -0.506 OA
ATOM     19  H   UNL     1      20.259  60.070  27.210  0.00  0.00    +0.292 HD
ENDBRANCH   9  18
BRANCH  20  21
ATOM     21  O   UNL     1      23.082  55.741  28.671  0.00  0.00    -0.505 OA
ATOM     22  H   UNL     1      23.780  55.763  27.997  0.00  0.00    +0.292 HD
ENDBRANCH  20  21
ENDBRANCH   7   8
BRANCH   3   1
ATOM      1  O   UNL     1      22.047  55.727  22.655  0.00  0.00    -0.506 OA
ATOM      2  H   UNL     1      22.359  56.373  21.998  0.00  0.00    +0.292 HD
ENDBRANCH   3   1
BRANCH  29  30
ATOM     30  O   UNL     1      26.542  57.974  21.669  0.00  0.00    -0.506 OA
ATOM     31  H   UNL     1      26.900  57.074  21.644  0.00  0.00    +0.292 HD
ENDBRANCH  29  30
TORSDOF 7
ENDMDL
MODEL 8
REMARK VINA RESULT:    -7.126     23.958     27.391
REMARK INTER + INTRA:          -9.767
REMARK INTER:                  -9.374
REMARK INTRA:                  -0.393
REMARK UNBOUND:                -0.558
REMARK  Name = C:\Users\HP\Downloads\Anthraquinone_pdb\AD33.pdb
REMARK  10 active torsions:
REMARK  status: ('A' for Active; 'I' for Inactive)
REMARK    1  A    between atoms: O_1  and  C_18
REMARK    2  A    between atoms: O_4  and  C_20
REMARK    3  A    between atoms: O_5  and  C_21
REMARK    4  A    between atoms: O_6  and  C_26
REMARK    5  A    between atoms: O_6  and  C_32
REMARK    6  A    between atoms: O_7  and  C_24
REMARK    7  A    between atoms: C_10  and  C_13
REMARK    8  A    between atoms: C_12  and  C_22
REMARK    9  A    between atoms: C_23  and  C_30
REMARK   10  A    between atoms: C_30  and  C_31
REMARK                            x       y       z     vdW  Elec       q    Type
REMARK                         _______ _______ _______ _____ _____    ______ ____
ROOT
ATOM      3  C   UNL     1      10.098  53.209   4.328  0.00  0.00    +0.129 A 
ATOM      4  C   UNL     1       8.940  53.439   5.072  0.00  0.00    +0.050 A 
ATOM      5  C   UNL     1       8.345  52.396   5.778  0.00  0.00    -0.038 A 
ATOM      6  C   UNL     1       7.104  52.698   6.558  0.00  0.00    +0.044 C 
ATOM      7  C   UNL     1       8.904  51.118   5.744  0.00  0.00    +0.004 A 
ATOM     23  C   UNL     1      10.066  50.883   4.998  0.00  0.00    +0.045 A 
ATOM     24  C   UNL     1      10.652  49.527   4.966  0.00  0.00    +0.195 C 
ATOM     25  C   UNL     1      11.878  49.293   4.178  0.00  0.00    +0.037 A 
ATOM     26  C   UNL     1      12.444  48.013   4.141  0.00  0.00    +0.012 A 
ATOM     27  C   UNL     1      13.603  47.784   3.399  0.00  0.00    +0.004 A 
ATOM     28  C   UNL     1      14.198  48.827   2.693  0.00  0.00    +0.046 A 
ATOM     29  C   UNL     1      13.637  50.105   2.726  0.00  0.00    +0.128 A 
ATOM     32  C   UNL     1      12.474  50.339   3.470  0.00  0.00    +0.075 A 
ATOM     33  C   UNL     1      11.889  51.694   3.500  0.00  0.00    +0.202 C 
ATOM     34  O   UNL     1      12.412  52.612   2.881  0.00  0.00    -0.286 OA
ATOM     35  O   UNL     1      10.165  48.578   5.569  0.00  0.00    -0.287 OA
ATOM     36  C   UNL     1      10.663  51.928   4.290  0.00  0.00    +0.075 A 
ENDROOT
BRANCH   7   8
ATOM      8  C   UNL     1       8.223  50.083   6.506  0.00  0.00    +0.067 A 
ATOM      9  C   UNL     1       7.368  49.194   5.857  0.00  0.00    +0.132 A 
ATOM     10  C   UNL     1       6.714  48.201   6.587  0.00  0.00    +0.092 A 
ATOM     11  C   UNL     1       6.916  48.099   7.963  0.00  0.00    +0.138 A 
ATOM     12  C   UNL     1       7.772  48.991   8.610  0.00  0.00    +0.101 A 
ATOM     20  C   UNL     1       8.427  49.984   7.881  0.00  0.00    +0.142 A 
BRANCH  12  13
ATOM     13  C   UNL     1       7.982  48.881  10.050  0.00  0.00    +0.167 C 
ATOM     14  C   UNL     1       9.279  48.296  10.591  0.00  0.00    +0.092 C 
ATOM     15  O   UNL     1       7.115  49.259  10.860  0.00  0.00    -0.292 OA
ENDBRANCH  12  13
BRANCH  11  16
ATOM     16  O   UNL     1       6.267  47.122   8.657  0.00  0.00    -0.494 OA
ATOM     17  C   UNL     1       4.856  47.267   8.813  0.00  0.00    +0.277 C 
ENDBRANCH  11  16
BRANCH   9  18
ATOM     18  O   UNL     1       7.150  49.270   4.514  0.00  0.00    -0.506 OA
ATOM     19  H   UNL     1       6.214  49.135   4.300  0.00  0.00    +0.292 HD
ENDBRANCH   9  18
BRANCH  20  21
ATOM     21  O   UNL     1       9.264  50.852   8.522  0.00  0.00    -0.505 OA
ATOM     22  H   UNL     1      10.193  50.627   8.357  0.00  0.00    +0.292 HD
ENDBRANCH  20  21
ENDBRANCH   7   8
BRANCH   3   1
ATOM      1  O   UNL     1      10.627  54.274   3.661  0.00  0.00    -0.506 OA
ATOM      2  H   UNL     1      11.131  53.961   2.890  0.00  0.00    +0.292 HD
ENDBRANCH   3   1
BRANCH  29  30
ATOM     30  O   UNL     1      14.272  51.077   2.012  0.00  0.00    -0.506 OA
ATOM     31  H   UNL     1      15.094  50.739   1.627  0.00  0.00    +0.292 HD
ENDBRANCH  29  30
TORSDOF 7
ENDMDL
MODEL 9
REMARK VINA RESULT:    -6.878     23.909     26.571
REMARK INTER + INTRA:          -9.447
REMARK INTER:                  -8.739
REMARK INTRA:                  -0.708
REMARK UNBOUND:                -0.558
REMARK  Name = C:\Users\HP\Downloads\Anthraquinone_pdb\AD33.pdb
REMARK  10 active torsions:
REMARK  status: ('A' for Active; 'I' for Inactive)
REMARK    1  A    between atoms: O_1  and  C_18
REMARK    2  A    between atoms: O_4  and  C_20
REMARK    3  A    between atoms: O_5  and  C_21
REMARK    4  A    between atoms: O_6  and  C_26
REMARK    5  A    between atoms: O_6  and  C_32
REMARK    6  A    between atoms: O_7  and  C_24
REMARK    7  A    between atoms: C_10  and  C_13
REMARK    8  A    between atoms: C_12  and  C_22
REMARK    9  A    between atoms: C_23  and  C_30
REMARK   10  A    between atoms: C_30  and  C_31
REMARK                            x       y       z     vdW  Elec       q    Type
REMARK                         _______ _______ _______ _____ _____    ______ ____
ROOT
ATOM      3  C   UNL     1      20.881  52.378   4.706  0.00  0.00    +0.129 A 
ATOM      4  C   UNL     1      21.903  52.400   5.655  0.00  0.00    +0.050 A 
ATOM      5  C   UNL     1      22.371  51.209   6.206  0.00  0.00    -0.038 A 
ATOM      6  C   UNL     1      23.467  51.292   7.222  0.00  0.00    +0.044 C 
ATOM      7  C   UNL     1      21.819  49.990   5.810  0.00  0.00    +0.004 A 
ATOM     23  C   UNL     1      20.794  49.963   4.857  0.00  0.00    +0.045 A 
ATOM     24  C   UNL     1      20.215  48.669   4.443  0.00  0.00    +0.195 C 
ATOM     25  C   UNL     1      19.136  48.655   3.436  0.00  0.00    +0.037 A 
ATOM     26  C   UNL     1      18.580  47.434   3.033  0.00  0.00    +0.012 A 
ATOM     27  C   UNL     1      17.560  47.412   2.082  0.00  0.00    +0.004 A 
ATOM     28  C   UNL     1      17.092  48.603   1.532  0.00  0.00    +0.046 A 
ATOM     29  C   UNL     1      17.642  49.822   1.930  0.00  0.00    +0.128 A 
ATOM     32  C   UNL     1      18.667  49.849   2.884  0.00  0.00    +0.075 A 
ATOM     33  C   UNL     1      19.243  51.144   3.298  0.00  0.00    +0.202 C 
ATOM     34  O   UNL     1      18.834  52.191   2.814  0.00  0.00    -0.286 OA
ATOM     35  O   UNL     1      20.592  47.596   4.898  0.00  0.00    -0.287 OA
ATOM     36  C   UNL     1      20.325  51.157   4.305  0.00  0.00    +0.075 A 
ENDROOT
BRANCH   7   8
ATOM      8  C   UNL     1      22.362  48.792   6.431  0.00  0.00    +0.067 A 
ATOM      9  C   UNL     1      21.771  48.283   7.587  0.00  0.00    +0.132 A 
ATOM     10  C   UNL     1      22.290  47.134   8.184  0.00  0.00    +0.092 A 
ATOM     11  C   UNL     1      23.398  46.497   7.626  0.00  0.00    +0.138 A 
ATOM     12  C   UNL     1      23.987  47.009   6.470  0.00  0.00    +0.101 A 
ATOM     20  C   UNL     1      23.469  48.158   5.871  0.00  0.00    +0.142 A 
BRANCH  12  13
ATOM     13  C   UNL     1      25.147  46.340   5.888  0.00  0.00    +0.167 C 
ATOM     14  C   UNL     1      24.959  45.104   5.019  0.00  0.00    +0.092 C 
ATOM     15  O   UNL     1      26.302  46.759   6.086  0.00  0.00    -0.292 OA
ENDBRANCH  12  13
BRANCH  11  16
ATOM     16  O   UNL     1      23.889  45.376   8.226  0.00  0.00    -0.494 OA
ATOM     17  C   UNL     1      24.772  45.567   9.330  0.00  0.00    +0.277 C 
ENDBRANCH  11  16
BRANCH   9  18
ATOM     18  O   UNL     1      20.688  48.885   8.155  0.00  0.00    -0.506 OA
ATOM     19  H   UNL     1      19.871  48.404   7.952  0.00  0.00    +0.292 HD
ENDBRANCH   9  18
BRANCH  20  21
ATOM     21  O   UNL     1      24.052  48.652   4.739  0.00  0.00    -0.505 OA
ATOM     22  H   UNL     1      24.165  47.956   4.073  0.00  0.00    +0.292 HD
ENDBRANCH  20  21
ENDBRANCH   7   8
BRANCH   3   1
ATOM      1  O   UNL     1      20.471  53.580   4.209  0.00  0.00    -0.506 OA
ATOM      2  H   UNL     1      21.182  53.973   3.673  0.00  0.00    +0.292 HD
ENDBRANCH   3   1
BRANCH  29  30
ATOM     30  O   UNL     1      17.136  50.947   1.350  0.00  0.00    -0.506 OA
ATOM     31  H   UNL     1      17.161  51.694   1.968  0.00  0.00    +0.292 HD
ENDBRANCH  29  30
TORSDOF 7
ENDMDL
