MODEL 1
REMARK VINA RESULT:    -7.910      0.000      0.000
REMARK INTER + INTRA:         -14.565
REMARK INTER:                 -12.072
REMARK INTRA:                  -2.493
REMARK UNBOUND:                -2.493
REMARK  Name = C:\Users\HP\Downloads\Anthraquinone_pdb\AD34.pdb
REMARK  15 active torsions:
REMARK  status: ('A' for Active; 'I' for Inactive)
REMARK    1  A    between atoms: O_1  and  C_28
REMARK    2  A    between atoms: O_1  and  C_33
REMARK    3  A    between atoms: O_4  and  C_23
REMARK    4  A    between atoms: O_5  and  C_24
REMARK    5  A    between atoms: O_6  and  C_25
REMARK    6  A    between atoms: O_8  and  C_29
REMARK    7  A    between atoms: O_10  and  C_37
REMARK    8  A    between atoms: O_11  and  C_38
REMARK    9  A    between atoms: O_12  and  C_40
REMARK   10  A    between atoms: O_13  and  C_42
REMARK   11  A    between atoms: C_15  and  C_17
REMARK   12  A    between atoms: C_22  and  C_35
REMARK   13  A    between atoms: C_26  and  C_32
REMARK   14  A    between atoms: C_32  and  C_41
REMARK   15  A    between atoms: C_39  and  C_42
REMARK                            x       y       z     vdW  Elec       q    Type
REMARK                         _______ _______ _______ _____ _____    ______ ____
ROOT
ATOM     17  C   UNL     1      21.542  58.759  27.160  0.00  0.00    +0.141 A 
ATOM     18  C   UNL     1      22.098  59.832  27.859  0.00  0.00    +0.092 A 
ATOM     19  C   UNL     1      22.086  59.882  29.260  0.00  0.00    +0.132 A 
ATOM     20  C   UNL     1      21.352  58.982  30.050  0.00  0.00    +0.067 A 
ATOM     21  C   UNL     1      20.692  57.975  29.298  0.00  0.00    +0.142 A 
ATOM     47  C   UNL     1      20.943  57.739  27.918  0.00  0.00    +0.101 A 
ENDROOT
BRANCH  20  24
ATOM     24  C   UNL     1      21.305  59.021  31.572  0.00  0.00    +0.004 A 
ATOM     25  C   UNL     1      22.206  58.268  32.386  0.00  0.00    -0.038 A 
ATOM     26  C   UNL     1      23.350  57.414  31.883  0.00  0.00    +0.044 C 
ATOM     27  C   UNL     1      22.070  58.264  33.794  0.00  0.00    +0.050 A 
ATOM     28  C   UNL     1      21.176  59.098  34.443  0.00  0.00    +0.129 A 
ATOM     29  C   UNL     1      20.356  59.934  33.699  0.00  0.00    +0.075 A 
ATOM     30  C   UNL     1      19.518  60.944  34.390  0.00  0.00    +0.202 C 
ATOM     31  C   UNL     1      18.907  62.038  33.622  0.00  0.00    +0.075 A 
ATOM     32  C   UNL     1      18.404  63.194  34.235  0.00  0.00    +0.128 A 
ATOM     33  C   UNL     1      17.885  64.232  33.465  0.00  0.00    +0.046 A 
ATOM     34  C   UNL     1      17.847  64.108  32.079  0.00  0.00    +0.004 A 
ATOM     35  C   UNL     1      18.303  62.938  31.469  0.00  0.00    +0.012 A 
ATOM     38  C   UNL     1      18.837  61.901  32.242  0.00  0.00    +0.037 A 
ATOM     39  C   UNL     1      19.266  60.620  31.644  0.00  0.00    +0.195 C 
ATOM     40  O   UNL     1      18.650  60.152  30.693  0.00  0.00    -0.287 OA
ATOM     41  O   UNL     1      19.410  60.930  35.613  0.00  0.00    -0.286 OA
ATOM     44  C   UNL     1      20.362  59.848  32.291  0.00  0.00    +0.045 A 
BRANCH  32  36
ATOM     36  O   UNL     1      18.399  63.382  35.588  0.00  0.00    -0.506 OA
ATOM     37  H   UNL     1      19.302  63.682  35.862  0.00  0.00    +0.292 HD
ENDBRANCH  32  36
BRANCH  28  42
ATOM     42  O   UNL     1      21.189  59.056  35.809  0.00  0.00    -0.506 OA
ATOM     43  H   UNL     1      21.934  59.606  36.140  0.00  0.00    +0.292 HD
ENDBRANCH  28  42
ENDBRANCH  20  24
BRANCH  47  48
ATOM     48  C   UNL     1      20.645  56.389  27.317  0.00  0.00    +0.167 C 
ATOM     49  C   UNL     1      21.531  55.218  27.653  0.00  0.00    +0.092 C 
ATOM     50  O   UNL     1      19.734  56.214  26.513  0.00  0.00    -0.292 OA
ENDBRANCH  47  48
BRANCH  21  22
ATOM     22  O   UNL     1      19.703  57.228  29.908  0.00  0.00    -0.505 OA
ATOM     23  H   UNL     1      19.823  57.335  30.870  0.00  0.00    +0.292 HD
ENDBRANCH  21  22
BRANCH  19  45
ATOM     45  O   UNL     1      22.878  60.883  29.759  0.00  0.00    -0.506 OA
ATOM     46  H   UNL     1      22.879  60.818  30.728  0.00  0.00    +0.292 HD
ENDBRANCH  19  45
BRANCH  17   1
ATOM      1  O   UNL     1      21.630  58.673  25.783  0.00  0.00    -0.460 OA
BRANCH   1   2
ATOM      2  C   UNL     1      22.969  58.603  25.254  0.00  0.00    +0.339 C 
ATOM      3  C   UNL     1      23.533  57.158  25.169  0.00  0.00    +0.214 C 
ATOM      4  C   UNL     1      23.037  56.393  23.934  0.00  0.00    +0.180 C 
ATOM      5  C   UNL     1      23.226  57.246  22.664  0.00  0.00    +0.177 C 
ATOM      6  C   UNL     1      22.651  58.666  22.840  0.00  0.00    +0.179 C 
ATOM     16  O   UNL     1      23.157  59.309  24.027  0.00  0.00    -0.331 OA
BRANCH   5  10
ATOM     10  O   UNL     1      24.619  57.333  22.321  0.00  0.00    -0.386 OA
ATOM     11  H   UNL     1      24.677  57.810  21.467  0.00  0.00    +0.210 HD
ENDBRANCH   5  10
BRANCH   4  12
ATOM     12  O   UNL     1      21.682  55.971  24.049  0.00  0.00    -0.386 OA
ATOM     13  H   UNL     1      21.097  56.642  23.655  0.00  0.00    +0.210 HD
ENDBRANCH   4  12
BRANCH   3  14
ATOM     14  O   UNL     1      24.981  57.195  25.063  0.00  0.00    -0.383 OA
ATOM     15  H   UNL     1      25.361  57.190  25.961  0.00  0.00    +0.210 HD
ENDBRANCH   3  14
BRANCH   6   7
ATOM      7  C   UNL     1      21.118  58.650  22.757  0.00  0.00    +0.190 C 
BRANCH   7   8
ATOM      8  O   UNL     1      20.652  57.699  21.801  0.00  0.00    -0.392 OA
ATOM      9  H   UNL     1      21.208  56.912  21.944  0.00  0.00    +0.210 HD
ENDBRANCH   7   8
ENDBRANCH   6   7
ENDBRANCH   1   2
ENDBRANCH  17   1
TORSDOF 13
ENDMDL
MODEL 2
REMARK VINA RESULT:    -7.807      2.045      3.287
REMARK INTER + INTRA:         -14.408
REMARK INTER:                 -12.369
REMARK INTRA:                  -2.039
REMARK UNBOUND:                -2.493
REMARK  Name = C:\Users\HP\Downloads\Anthraquinone_pdb\AD34.pdb
REMARK  15 active torsions:
REMARK  status: ('A' for Active; 'I' for Inactive)
REMARK    1  A    between atoms: O_1  and  C_28
REMARK    2  A    between atoms: O_1  and  C_33
REMARK    3  A    between atoms: O_4  and  C_23
REMARK    4  A    between atoms: O_5  and  C_24
REMARK    5  A    between atoms: O_6  and  C_25
REMARK    6  A    between atoms: O_8  and  C_29
REMARK    7  A    between atoms: O_10  and  C_37
REMARK    8  A    between atoms: O_11  and  C_38
REMARK    9  A    between atoms: O_12  and  C_40
REMARK   10  A    between atoms: O_13  and  C_42
REMARK   11  A    between atoms: C_15  and  C_17
REMARK   12  A    between atoms: C_22  and  C_35
REMARK   13  A    between atoms: C_26  and  C_32
REMARK   14  A    between atoms: C_32  and  C_41
REMARK   15  A    between atoms: C_39  and  C_42
REMARK                            x       y       z     vdW  Elec       q    Type
REMARK                         _______ _______ _______ _____ _____    ______ ____
ROOT
ATOM     17  C   UNL     1      22.286  58.495  27.784  0.00  0.00    +0.141 A 
ATOM     18  C   UNL     1      21.373  59.518  27.525  0.00  0.00    +0.092 A 
ATOM     19  C   UNL     1      20.392  59.881  28.460  0.00  0.00    +0.132 A 
ATOM     20  C   UNL     1      20.122  59.128  29.615  0.00  0.00    +0.067 A 
ATOM     21  C   UNL     1      20.988  58.016  29.782  0.00  0.00    +0.142 A 
ATOM     47  C   UNL     1      22.167  57.819  29.010  0.00  0.00    +0.101 A 
ENDROOT
BRANCH  20  24
ATOM     24  C   UNL     1      19.052  59.486  30.638  0.00  0.00    +0.004 A 
ATOM     25  C   UNL     1      17.755  58.885  30.633  0.00  0.00    -0.038 A 
ATOM     26  C   UNL     1      17.292  57.788  29.698  0.00  0.00    +0.044 C 
ATOM     27  C   UNL     1      16.763  59.311  31.547  0.00  0.00    +0.050 A 
ATOM     28  C   UNL     1      17.046  60.199  32.570  0.00  0.00    +0.129 A 
ATOM     29  C   UNL     1      18.325  60.725  32.686  0.00  0.00    +0.075 A 
ATOM     30  C   UNL     1      18.675  61.543  33.872  0.00  0.00    +0.202 C 
ATOM     31  C   UNL     1      20.085  61.826  34.175  0.00  0.00    +0.075 A 
ATOM     32  C   UNL     1      20.504  62.284  35.432  0.00  0.00    +0.128 A 
ATOM     33  C   UNL     1      21.858  62.485  35.695  0.00  0.00    +0.046 A 
ATOM     34  C   UNL     1      22.795  62.249  34.693  0.00  0.00    +0.004 A 
ATOM     35  C   UNL     1      22.377  61.839  33.426  0.00  0.00    +0.012 A 
ATOM     38  C   UNL     1      21.019  61.625  33.167  0.00  0.00    +0.037 A 
ATOM     39  C   UNL     1      20.527  61.258  31.823  0.00  0.00    +0.195 C 
ATOM     40  O   UNL     1      21.070  61.720  30.825  0.00  0.00    -0.287 OA
ATOM     41  O   UNL     1      17.804  61.905  34.658  0.00  0.00    -0.286 OA
ATOM     44  C   UNL     1      19.292  60.436  31.701  0.00  0.00    +0.045 A 
BRANCH  32  36
ATOM     36  O   UNL     1      19.642  62.546  36.459  0.00  0.00    -0.506 OA
ATOM     37  H   UNL     1      20.163  62.570  37.301  0.00  0.00    +0.292 HD
ENDBRANCH  32  36
BRANCH  28  42
ATOM     42  O   UNL     1      16.023  60.477  33.432  0.00  0.00    -0.506 OA
ATOM     43  H   UNL     1      16.323  61.154  34.079  0.00  0.00    +0.292 HD
ENDBRANCH  28  42
ENDBRANCH  20  24
BRANCH  47  48
ATOM     48  C   UNL     1      23.289  56.970  29.549  0.00  0.00    +0.167 C 
ATOM     49  C   UNL     1      24.494  57.637  30.158  0.00  0.00    +0.092 C 
ATOM     50  O   UNL     1      23.286  55.745  29.462  0.00  0.00    -0.292 OA
ENDBRANCH  47  48
BRANCH  21  22
ATOM     22  O   UNL     1      20.643  57.033  30.689  0.00  0.00    -0.505 OA
ATOM     23  H   UNL     1      19.668  56.998  30.708  0.00  0.00    +0.292 HD
ENDBRANCH  21  22
BRANCH  19  45
ATOM     45  O   UNL     1      19.753  61.047  28.128  0.00  0.00    -0.506 OA
ATOM     46  H   UNL     1      18.818  60.848  27.965  0.00  0.00    +0.292 HD
ENDBRANCH  19  45
BRANCH  17   1
ATOM      1  O   UNL     1      23.304  58.197  26.897  0.00  0.00    -0.460 OA
BRANCH   1   2
ATOM      2  C   UNL     1      23.159  56.951  26.187  0.00  0.00    +0.339 C 
ATOM      3  C   UNL     1      21.785  56.789  25.481  0.00  0.00    +0.214 C 
ATOM      4  C   UNL     1      21.711  57.528  24.137  0.00  0.00    +0.180 C 
ATOM      5  C   UNL     1      22.939  57.185  23.270  0.00  0.00    +0.177 C 
ATOM      6  C   UNL     1      24.257  57.358  24.052  0.00  0.00    +0.179 C 
ATOM     16  O   UNL     1      24.238  56.644  25.304  0.00  0.00    -0.331 OA
BRANCH   5  10
ATOM     10  O   UNL     1      22.847  55.836  22.782  0.00  0.00    -0.386 OA
ATOM     11  H   UNL     1      23.559  55.322  23.214  0.00  0.00    +0.210 HD
ENDBRANCH   5  10
BRANCH   4  12
ATOM     12  O   UNL     1      21.590  58.939  24.286  0.00  0.00    -0.386 OA
ATOM     13  H   UNL     1      22.186  59.385  23.659  0.00  0.00    +0.210 HD
ENDBRANCH   4  12
BRANCH   3  14
ATOM     14  O   UNL     1      21.540  55.389  25.183  0.00  0.00    -0.383 OA
ATOM     15  H   UNL     1      20.703  55.316  24.689  0.00  0.00    +0.210 HD
ENDBRANCH   3  14
BRANCH   6   7
ATOM      7  C   UNL     1      24.614  58.844  24.198  0.00  0.00    +0.190 C 
BRANCH   7   8
ATOM      8  O   UNL     1      24.254  59.589  23.036  0.00  0.00    -0.392 OA
ATOM      9  H   UNL     1      23.310  59.797  23.159  0.00  0.00    +0.210 HD
ENDBRANCH   7   8
ENDBRANCH   6   7
ENDBRANCH   1   2
ENDBRANCH  17   1
TORSDOF 13
ENDMDL
MODEL 3
REMARK VINA RESULT:    -7.716      2.377      9.474
REMARK INTER + INTRA:         -14.268
REMARK INTER:                 -12.381
REMARK INTRA:                  -1.887
REMARK UNBOUND:                -2.493
REMARK  Name = C:\Users\HP\Downloads\Anthraquinone_pdb\AD34.pdb
REMARK  15 active torsions:
REMARK  status: ('A' for Active; 'I' for Inactive)
REMARK    1  A    between atoms: O_1  and  C_28
REMARK    2  A    between atoms: O_1  and  C_33
REMARK    3  A    between atoms: O_4  and  C_23
REMARK    4  A    between atoms: O_5  and  C_24
REMARK    5  A    between atoms: O_6  and  C_25
REMARK    6  A    between atoms: O_8  and  C_29
REMARK    7  A    between atoms: O_10  and  C_37
REMARK    8  A    between atoms: O_11  and  C_38
REMARK    9  A    between atoms: O_12  and  C_40
REMARK   10  A    between atoms: O_13  and  C_42
REMARK   11  A    between atoms: C_15  and  C_17
REMARK   12  A    between atoms: C_22  and  C_35
REMARK   13  A    between atoms: C_26  and  C_32
REMARK   14  A    between atoms: C_32  and  C_41
REMARK   15  A    between atoms: C_39  and  C_42
REMARK                            x       y       z     vdW  Elec       q    Type
REMARK                         _______ _______ _______ _____ _____    ______ ____
ROOT
ATOM     17  C   UNL     1      19.967  61.649  31.440  0.00  0.00    +0.141 A 
ATOM     18  C   UNL     1      20.929  60.717  31.832  0.00  0.00    +0.092 A 
ATOM     19  C   UNL     1      21.715  60.033  30.893  0.00  0.00    +0.132 A 
ATOM     20  C   UNL     1      21.465  60.076  29.512  0.00  0.00    +0.067 A 
ATOM     21  C   UNL     1      20.394  60.937  29.156  0.00  0.00    +0.142 A 
ATOM     47  C   UNL     1      19.796  61.857  30.061  0.00  0.00    +0.101 A 
ENDROOT
BRANCH  20  24
ATOM     24  C   UNL     1      22.289  59.331  28.470  0.00  0.00    +0.004 A 
ATOM     25  C   UNL     1      23.488  59.872  27.911  0.00  0.00    -0.038 A 
ATOM     26  C   UNL     1      24.139  61.179  28.311  0.00  0.00    +0.044 C 
ATOM     27  C   UNL     1      24.175  59.186  26.882  0.00  0.00    +0.050 A 
ATOM     28  C   UNL     1      23.812  57.910  26.488  0.00  0.00    +0.129 A 
ATOM     29  C   UNL     1      22.720  57.294  27.083  0.00  0.00    +0.075 A 
ATOM     30  C   UNL     1      22.429  55.870  26.785  0.00  0.00    +0.202 C 
ATOM     31  C   UNL     1      21.498  55.120  27.638  0.00  0.00    +0.075 A 
ATOM     32  C   UNL     1      21.439  53.719  27.632  0.00  0.00    +0.128 A 
ATOM     33  C   UNL     1      20.581  53.044  28.498  0.00  0.00    +0.046 A 
ATOM     34  C   UNL     1      19.764  53.770  29.360  0.00  0.00    +0.004 A 
ATOM     35  C   UNL     1      19.786  55.166  29.335  0.00  0.00    +0.012 A 
ATOM     38  C   UNL     1      20.656  55.842  28.474  0.00  0.00    +0.037 A 
ATOM     39  C   UNL     1      20.662  57.316  28.366  0.00  0.00    +0.195 C 
ATOM     40  O   UNL     1      19.612  57.941  28.467  0.00  0.00    -0.287 OA
ATOM     41  O   UNL     1      23.033  55.286  25.889  0.00  0.00    -0.286 OA
ATOM     44  C   UNL     1      21.927  58.012  28.001  0.00  0.00    +0.045 A 
BRANCH  32  36
ATOM     36  O   UNL     1      22.203  52.941  26.808  0.00  0.00    -0.506 OA
ATOM     37  H   UNL     1      22.686  53.536  26.182  0.00  0.00    +0.292 HD
ENDBRANCH  32  36
BRANCH  28  42
ATOM     42  O   UNL     1      24.596  57.322  25.535  0.00  0.00    -0.506 OA
ATOM     43  H   UNL     1      24.287  57.605  24.646  0.00  0.00    +0.292 HD
ENDBRANCH  28  42
ENDBRANCH  20  24
BRANCH  47  48
ATOM     48  C   UNL     1      19.072  63.070  29.535  0.00  0.00    +0.167 C 
ATOM     49  C   UNL     1      19.855  64.164  28.859  0.00  0.00    +0.092 C 
ATOM     50  O   UNL     1      17.864  63.230  29.686  0.00  0.00    -0.292 OA
ENDBRANCH  47  48
BRANCH  21  22
ATOM     22  O   UNL     1      19.850  60.835  27.890  0.00  0.00    -0.505 OA
ATOM     23  H   UNL     1      19.720  61.746  27.566  0.00  0.00    +0.292 HD
ENDBRANCH  21  22
BRANCH  19  45
ATOM     45  O   UNL     1      22.751  59.347  31.472  0.00  0.00    -0.506 OA
ATOM     46  H   UNL     1      23.263  59.967  32.016  0.00  0.00    +0.292 HD
ENDBRANCH  19  45
BRANCH  17   1
ATOM      1  O   UNL     1      19.253  62.382  32.369  0.00  0.00    -0.460 OA
BRANCH   1   2
ATOM      2  C   UNL     1      18.993  61.709  33.617  0.00  0.00    +0.339 C 
ATOM      3  C   UNL     1      19.298  62.577  34.870  0.00  0.00    +0.214 C 
ATOM      4  C   UNL     1      18.172  63.566  35.202  0.00  0.00    +0.180 C 
ATOM      5  C   UNL     1      16.812  62.841  35.222  0.00  0.00    +0.177 C 
ATOM      6  C   UNL     1      16.597  61.995  33.951  0.00  0.00    +0.179 C 
ATOM     16  O   UNL     1      17.703  61.103  33.705  0.00  0.00    -0.331 OA
BRANCH   5  10
ATOM     10  O   UNL     1      16.709  61.998  36.381  0.00  0.00    -0.386 OA
ATOM     11  H   UNL     1      16.947  61.090  36.100  0.00  0.00    +0.210 HD
ENDBRANCH   5  10
BRANCH   4  12
ATOM     12  O   UNL     1      18.128  64.677  34.312  0.00  0.00    -0.386 OA
ATOM     13  H   UNL     1      17.348  65.224  34.512  0.00  0.00    +0.210 HD
ENDBRANCH   4  12
BRANCH   3  14
ATOM     14  O   UNL     1      19.445  61.727  36.039  0.00  0.00    -0.383 OA
ATOM     15  H   UNL     1      20.394  61.622  36.232  0.00  0.00    +0.210 HD
ENDBRANCH   3  14
BRANCH   6   7
ATOM      7  C   UNL     1      16.250  62.887  32.751  0.00  0.00    +0.190 C 
BRANCH   7   8
ATOM      8  O   UNL     1      14.994  62.532  32.176  0.00  0.00    -0.392 OA
ATOM      9  H   UNL     1      14.330  62.862  32.808  0.00  0.00    +0.210 HD
ENDBRANCH   7   8
ENDBRANCH   6   7
ENDBRANCH   1   2
ENDBRANCH  17   1
TORSDOF 13
ENDMDL
MODEL 4
REMARK VINA RESULT:    -7.707      0.887      2.154
REMARK INTER + INTRA:         -14.255
REMARK INTER:                 -12.273
REMARK INTRA:                  -1.983
REMARK UNBOUND:                -2.493
REMARK  Name = C:\Users\HP\Downloads\Anthraquinone_pdb\AD34.pdb
REMARK  15 active torsions:
REMARK  status: ('A' for Active; 'I' for Inactive)
REMARK    1  A    between atoms: O_1  and  C_28
REMARK    2  A    between atoms: O_1  and  C_33
REMARK    3  A    between atoms: O_4  and  C_23
REMARK    4  A    between atoms: O_5  and  C_24
REMARK    5  A    between atoms: O_6  and  C_25
REMARK    6  A    between atoms: O_8  and  C_29
REMARK    7  A    between atoms: O_10  and  C_37
REMARK    8  A    between atoms: O_11  and  C_38
REMARK    9  A    between atoms: O_12  and  C_40
REMARK   10  A    between atoms: O_13  and  C_42
REMARK   11  A    between atoms: C_15  and  C_17
REMARK   12  A    between atoms: C_22  and  C_35
REMARK   13  A    between atoms: C_26  and  C_32
REMARK   14  A    between atoms: C_32  and  C_41
REMARK   15  A    between atoms: C_39  and  C_42
REMARK                            x       y       z     vdW  Elec       q    Type
REMARK                         _______ _______ _______ _____ _____    ______ ____
ROOT
ATOM     17  C   UNL     1      21.733  59.019  27.040  0.00  0.00    +0.141 A 
ATOM     18  C   UNL     1      21.363  57.861  27.727  0.00  0.00    +0.092 A 
ATOM     19  C   UNL     1      21.222  57.848  29.123  0.00  0.00    +0.132 A 
ATOM     20  C   UNL     1      21.632  58.914  29.941  0.00  0.00    +0.067 A 
ATOM     21  C   UNL     1      22.124  60.030  29.215  0.00  0.00    +0.142 A 
ATOM     47  C   UNL     1      21.988  60.169  27.806  0.00  0.00    +0.101 A 
ENDROOT
BRANCH  20  24
ATOM     24  C   UNL     1      21.509  58.923  31.459  0.00  0.00    +0.004 A 
ATOM     25  C   UNL     1      22.475  58.301  32.310  0.00  0.00    -0.038 A 
ATOM     26  C   UNL     1      23.756  57.635  31.855  0.00  0.00    +0.044 C 
ATOM     27  C   UNL     1      22.276  58.255  33.710  0.00  0.00    +0.050 A 
ATOM     28  C   UNL     1      21.238  58.936  34.321  0.00  0.00    +0.129 A 
ATOM     29  C   UNL     1      20.336  59.651  33.546  0.00  0.00    +0.075 A 
ATOM     30  C   UNL     1      19.325  60.513  34.205  0.00  0.00    +0.202 C 
ATOM     31  C   UNL     1      18.594  61.515  33.417  0.00  0.00    +0.075 A 
ATOM     32  C   UNL     1      17.895  62.573  34.014  0.00  0.00    +0.128 A 
ATOM     33  C   UNL     1      17.261  63.534  33.229  0.00  0.00    +0.046 A 
ATOM     34  C   UNL     1      17.307  63.427  31.841  0.00  0.00    +0.004 A 
ATOM     35  C   UNL     1      17.961  62.348  31.245  0.00  0.00    +0.012 A 
ATOM     38  C   UNL     1      18.608  61.390  32.034  0.00  0.00    +0.037 A 
ATOM     39  C   UNL     1      19.252  60.197  31.447  0.00  0.00    +0.195 C 
ATOM     40  O   UNL     1      18.758  59.657  30.463  0.00  0.00    -0.287 OA
ATOM     41  O   UNL     1      19.164  60.465  35.421  0.00  0.00    -0.286 OA
ATOM     44  C   UNL     1      20.421  59.588  32.139  0.00  0.00    +0.045 A 
BRANCH  32  36
ATOM     36  O   UNL     1      17.799  62.738  35.368  0.00  0.00    -0.506 OA
ATOM     37  H   UNL     1      16.960  63.226  35.561  0.00  0.00    +0.292 HD
ENDBRANCH  32  36
BRANCH  28  42
ATOM     42  O   UNL     1      21.194  58.875  35.686  0.00  0.00    -0.506 OA
ATOM     43  H   UNL     1      20.764  58.033  35.956  0.00  0.00    +0.292 HD
ENDBRANCH  28  42
ENDBRANCH  20  24
BRANCH  47  48
ATOM     48  C   UNL     1      22.033  61.536  27.174  0.00  0.00    +0.167 C 
ATOM     49  C   UNL     1      23.346  62.076  26.672  0.00  0.00    +0.092 C 
ATOM     50  O   UNL     1      21.043  62.259  27.100  0.00  0.00    -0.292 OA
ENDBRANCH  47  48
BRANCH  21  22
ATOM     22  O   UNL     1      22.835  61.003  29.890  0.00  0.00    -0.505 OA
ATOM     23  H   UNL     1      23.748  60.972  29.547  0.00  0.00    +0.292 HD
ENDBRANCH  21  22
BRANCH  19  45
ATOM     45  O   UNL     1      20.631  56.701  29.583  0.00  0.00    -0.506 OA
ATOM     46  H   UNL     1      21.035  55.945  29.129  0.00  0.00    +0.292 HD
ENDBRANCH  19  45
BRANCH  17   1
ATOM      1  O   UNL     1      21.788  59.050  25.659  0.00  0.00    -0.460 OA
BRANCH   1   2
ATOM      2  C   UNL     1      23.105  58.909  25.091  0.00  0.00    +0.339 C 
ATOM      3  C   UNL     1      23.660  57.459  25.150  0.00  0.00    +0.214 C 
ATOM      4  C   UNL     1      23.113  56.562  24.030  0.00  0.00    +0.180 C 
ATOM      5  C   UNL     1      23.256  57.263  22.666  0.00  0.00    +0.177 C 
ATOM      6  C   UNL     1      22.694  58.699  22.699  0.00  0.00    +0.179 C 
ATOM     16  O   UNL     1      23.249  59.469  23.785  0.00  0.00    -0.331 OA
BRANCH   5  10
ATOM     10  O   UNL     1      24.635  57.299  22.262  0.00  0.00    -0.386 OA
ATOM     11  H   UNL     1      24.929  58.231  22.318  0.00  0.00    +0.210 HD
ENDBRANCH   5  10
BRANCH   4  12
ATOM     12  O   UNL     1      21.761  56.168  24.244  0.00  0.00    -0.386 OA
ATOM     13  H   UNL     1      21.643  55.899  25.172  0.00  0.00    +0.210 HD
ENDBRANCH   4  12
BRANCH   3  14
ATOM     14  O   UNL     1      25.103  57.471  24.987  0.00  0.00    -0.383 OA
ATOM     15  H   UNL     1      25.310  57.653  24.052  0.00  0.00    +0.210 HD
ENDBRANCH   3  14
BRANCH   6   7
ATOM      7  C   UNL     1      21.160  58.687  22.677  0.00  0.00    +0.190 C 
BRANCH   7   8
ATOM      8  O   UNL     1      20.654  57.683  21.798  0.00  0.00    -0.392 OA
ATOM      9  H   UNL     1      20.555  58.133  20.940  0.00  0.00    +0.210 HD
ENDBRANCH   7   8
ENDBRANCH   6   7
ENDBRANCH   1   2
ENDBRANCH  17   1
TORSDOF 13
ENDMDL
MODEL 5
REMARK VINA RESULT:    -7.349     25.500     27.711
REMARK INTER + INTRA:         -13.709
REMARK INTER:                 -11.251
REMARK INTRA:                  -2.458
REMARK UNBOUND:                -2.493
REMARK  Name = C:\Users\HP\Downloads\Anthraquinone_pdb\AD34.pdb
REMARK  15 active torsions:
REMARK  status: ('A' for Active; 'I' for Inactive)
REMARK    1  A    between atoms: O_1  and  C_28
REMARK    2  A    between atoms: O_1  and  C_33
REMARK    3  A    between atoms: O_4  and  C_23
REMARK    4  A    between atoms: O_5  and  C_24
REMARK    5  A    between atoms: O_6  and  C_25
REMARK    6  A    between atoms: O_8  and  C_29
REMARK    7  A    between atoms: O_10  and  C_37
REMARK    8  A    between atoms: O_11  and  C_38
REMARK    9  A    between atoms: O_12  and  C_40
REMARK   10  A    between atoms: O_13  and  C_42
REMARK   11  A    between atoms: C_15  and  C_17
REMARK   12  A    between atoms: C_22  and  C_35
REMARK   13  A    between atoms: C_26  and  C_32
REMARK   14  A    between atoms: C_32  and  C_41
REMARK   15  A    between atoms: C_39  and  C_42
REMARK                            x       y       z     vdW  Elec       q    Type
REMARK                         _______ _______ _______ _____ _____    ______ ____
ROOT
ATOM     17  C   UNL     1       8.927  49.391   5.669  0.00  0.00    +0.141 A 
ATOM     18  C   UNL     1       8.100  48.293   5.911  0.00  0.00    +0.092 A 
ATOM     19  C   UNL     1       7.376  48.167   7.105  0.00  0.00    +0.132 A 
ATOM     20  C   UNL     1       7.576  49.009   8.212  0.00  0.00    +0.067 A 
ATOM     21  C   UNL     1       8.520  50.042   7.975  0.00  0.00    +0.142 A 
ATOM     47  C   UNL     1       9.027  50.357   6.684  0.00  0.00    +0.101 A 
ENDROOT
BRANCH  20  24
ATOM     24  C   UNL     1       6.818  48.887   9.527  0.00  0.00    +0.004 A 
ATOM     25  C   UNL     1       7.334  48.158  10.644  0.00  0.00    -0.038 A 
ATOM     26  C   UNL     1       8.691  47.492  10.715  0.00  0.00    +0.044 C 
ATOM     27  C   UNL     1       6.558  47.996  11.816  0.00  0.00    +0.050 A 
ATOM     28  C   UNL     1       5.353  48.655  11.990  0.00  0.00    +0.129 A 
ATOM     29  C   UNL     1       4.864  49.467  10.977  0.00  0.00    +0.075 A 
ATOM     30  C   UNL     1       3.663  50.302  11.223  0.00  0.00    +0.202 C 
ATOM     31  C   UNL     1       3.329  51.394  10.299  0.00  0.00    +0.075 A 
ATOM     32  C   UNL     1       2.436  52.418  10.640  0.00  0.00    +0.128 A 
ATOM     33  C   UNL     1       2.191  53.466   9.756  0.00  0.00    +0.046 A 
ATOM     34  C   UNL     1       2.824  53.481   8.516  0.00  0.00    +0.004 A 
ATOM     35  C   UNL     1       3.677  52.438   8.154  0.00  0.00    +0.012 A 
ATOM     38  C   UNL     1       3.932  51.392   9.048  0.00  0.00    +0.037 A 
ATOM     39  C   UNL     1       4.773  50.235   8.679  0.00  0.00    +0.195 C 
ATOM     40  O   UNL     1       4.748  49.801   7.532  0.00  0.00    -0.287 OA
ATOM     41  O   UNL     1       2.999  50.151  12.245  0.00  0.00    -0.286 OA
ATOM     44  C   UNL     1       5.540  49.526   9.741  0.00  0.00    +0.045 A 
BRANCH  32  36
ATOM     36  O   UNL     1       1.771  52.465  11.834  0.00  0.00    -0.506 OA
ATOM     37  H   UNL     1       1.159  51.689  11.877  0.00  0.00    +0.292 HD
ENDBRANCH  32  36
BRANCH  28  42
ATOM     42  O   UNL     1       4.732  48.475  13.195  0.00  0.00    -0.506 OA
ATOM     43  H   UNL     1       4.926  47.569  13.523  0.00  0.00    +0.292 HD
ENDBRANCH  28  42
ENDBRANCH  20  24
BRANCH  47  48
ATOM     48  C   UNL     1       9.579  51.732   6.405  0.00  0.00    +0.167 C 
ATOM     49  C   UNL     1       8.674  52.790   5.831  0.00  0.00    +0.092 C 
ATOM     50  O   UNL     1      10.762  52.012   6.577  0.00  0.00    -0.292 OA
ENDBRANCH  47  48
BRANCH  21  22
ATOM     22  O   UNL     1       9.033  50.736   9.054  0.00  0.00    -0.505 OA
ATOM     23  H   UNL     1       9.704  50.160   9.465  0.00  0.00    +0.292 HD
ENDBRANCH  21  22
BRANCH  19  45
ATOM     45  O   UNL     1       6.452  47.156   7.058  0.00  0.00    -0.506 OA
ATOM     46  H   UNL     1       6.758  46.435   7.631  0.00  0.00    +0.292 HD
ENDBRANCH  19  45
BRANCH  17   1
ATOM      1  O   UNL     1       9.573  49.553   4.458  0.00  0.00    -0.460 OA
BRANCH   1   2
ATOM      2  C   UNL     1      10.028  48.337   3.833  0.00  0.00    +0.339 C 
ATOM      3  C   UNL     1       9.547  48.171   2.365  0.00  0.00    +0.214 C 
ATOM      4  C   UNL     1      10.395  48.967   1.363  0.00  0.00    +0.180 C 
ATOM      5  C   UNL     1      11.894  48.695   1.597  0.00  0.00    +0.177 C 
ATOM      6  C   UNL     1      12.282  48.869   3.080  0.00  0.00    +0.179 C 
ATOM     16  O   UNL     1      11.430  48.099   3.952  0.00  0.00    -0.331 OA
BRANCH   5  10
ATOM     10  O   UNL     1      12.238  47.368   1.166  0.00  0.00    -0.386 OA
ATOM     11  H   UNL     1      12.980  47.064   1.727  0.00  0.00    +0.210 HD
ENDBRANCH   5  10
BRANCH   4  12
ATOM     12  O   UNL     1      10.134  50.366   1.403  0.00  0.00    -0.386 OA
ATOM     13  H   UNL     1       9.559  50.611   0.657  0.00  0.00    +0.210 HD
ENDBRANCH   4  12
BRANCH   3  14
ATOM     14  O   UNL     1       9.650  46.779   1.962  0.00  0.00    -0.383 OA
ATOM     15  H   UNL     1      10.056  46.272   2.689  0.00  0.00    +0.210 HD
ENDBRANCH   3  14
BRANCH   6   7
ATOM      7  C   UNL     1      12.360  50.355   3.454  0.00  0.00    +0.190 C 
BRANCH   7   8
ATOM      8  O   UNL     1      12.608  50.535   4.847  0.00  0.00    -0.392 OA
ATOM      9  H   UNL     1      13.535  50.833   4.897  0.00  0.00    +0.210 HD
ENDBRANCH   7   8
ENDBRANCH   6   7
ENDBRANCH   1   2
ENDBRANCH  17   1
TORSDOF 13
ENDMDL
MODEL 6
REMARK VINA RESULT:    -6.996     23.649     25.649
REMARK INTER + INTRA:         -13.170
REMARK INTER:                 -10.603
REMARK INTRA:                  -2.567
REMARK UNBOUND:                -2.493
REMARK  Name = C:\Users\HP\Downloads\Anthraquinone_pdb\AD34.pdb
REMARK  15 active torsions:
REMARK  status: ('A' for Active; 'I' for Inactive)
REMARK    1  A    between atoms: O_1  and  C_28
REMARK    2  A    between atoms: O_1  and  C_33
REMARK    3  A    between atoms: O_4  and  C_23
REMARK    4  A    between atoms: O_5  and  C_24
REMARK    5  A    between atoms: O_6  and  C_25
REMARK    6  A    between atoms: O_8  and  C_29
REMARK    7  A    between atoms: O_10  and  C_37
REMARK    8  A    between atoms: O_11  and  C_38
REMARK    9  A    between atoms: O_12  and  C_40
REMARK   10  A    between atoms: O_13  and  C_42
REMARK   11  A    between atoms: C_15  and  C_17
REMARK   12  A    between atoms: C_22  and  C_35
REMARK   13  A    between atoms: C_26  and  C_32
REMARK   14  A    between atoms: C_32  and  C_41
REMARK   15  A    between atoms: C_39  and  C_42
REMARK                            x       y       z     vdW  Elec       q    Type
REMARK                         _______ _______ _______ _____ _____    ______ ____
ROOT
ATOM     17  C   UNL     1      30.201  48.092   9.072  0.00  0.00    +0.141 A 
ATOM     18  C   UNL     1      29.146  48.505   9.888  0.00  0.00    +0.092 A 
ATOM     19  C   UNL     1      27.847  48.004   9.720  0.00  0.00    +0.132 A 
ATOM     20  C   UNL     1      27.467  47.223   8.616  0.00  0.00    +0.067 A 
ATOM     21  C   UNL     1      28.540  46.927   7.734  0.00  0.00    +0.142 A 
ATOM     47  C   UNL     1      29.904  47.172   8.053  0.00  0.00    +0.101 A 
ENDROOT
BRANCH  20  24
ATOM     24  C   UNL     1      26.061  46.680   8.396  0.00  0.00    +0.004 A 
ATOM     25  C   UNL     1      25.643  45.410   8.902  0.00  0.00    -0.038 A 
ATOM     26  C   UNL     1      26.473  44.484   9.765  0.00  0.00    +0.044 C 
ATOM     27  C   UNL     1      24.357  44.905   8.599  0.00  0.00    +0.050 A 
ATOM     28  C   UNL     1      23.407  45.671   7.945  0.00  0.00    +0.129 A 
ATOM     29  C   UNL     1      23.729  46.956   7.534  0.00  0.00    +0.075 A 
ATOM     30  C   UNL     1      22.670  47.837   6.985  0.00  0.00    +0.202 C 
ATOM     31  C   UNL     1      22.913  49.280   6.856  0.00  0.00    +0.075 A 
ATOM     32  C   UNL     1      21.872  50.202   6.677  0.00  0.00    +0.128 A 
ATOM     33  C   UNL     1      22.141  51.568   6.616  0.00  0.00    +0.046 A 
ATOM     34  C   UNL     1      23.456  52.015   6.712  0.00  0.00    +0.004 A 
ATOM     35  C   UNL     1      24.499  51.096   6.842  0.00  0.00    +0.012 A 
ATOM     38  C   UNL     1      24.227  49.726   6.916  0.00  0.00    +0.037 A 
ATOM     39  C   UNL     1      25.304  48.716   6.983  0.00  0.00    +0.195 C 
ATOM     40  O   UNL     1      26.351  48.898   6.372  0.00  0.00    -0.287 OA
ATOM     41  O   UNL     1      21.557  47.385   6.728  0.00  0.00    -0.286 OA
ATOM     44  C   UNL     1      25.049  47.429   7.686  0.00  0.00    +0.045 A 
BRANCH  32  36
ATOM     36  O   UNL     1      20.560  49.837   6.565  0.00  0.00    -0.506 OA
ATOM     37  H   UNL     1      20.150  49.878   7.465  0.00  0.00    +0.292 HD
ENDBRANCH  32  36
BRANCH  28  42
ATOM     42  O   UNL     1      22.178  45.098   7.775  0.00  0.00    -0.506 OA
ATOM     43  H   UNL     1      22.272  44.298   7.211  0.00  0.00    +0.292 HD
ENDBRANCH  28  42
ENDBRANCH  20  24
BRANCH  47  48
ATOM     48  C   UNL     1      30.992  46.390   7.362  0.00  0.00    +0.167 C 
ATOM     49  C   UNL     1      31.645  45.238   8.080  0.00  0.00    +0.092 C 
ATOM     50  O   UNL     1      31.412  46.691   6.248  0.00  0.00    -0.292 OA
ENDBRANCH  47  48
BRANCH  21  22
ATOM     22  O   UNL     1      28.251  46.442   6.473  0.00  0.00    -0.505 OA
ATOM     23  H   UNL     1      27.778  47.152   6.001  0.00  0.00    +0.292 HD
ENDBRANCH  21  22
BRANCH  19  45
ATOM     45  O   UNL     1      27.013  48.344  10.752  0.00  0.00    -0.506 OA
ATOM     46  H   UNL     1      27.260  49.228  11.068  0.00  0.00    +0.292 HD
ENDBRANCH  19  45
BRANCH  17   1
ATOM      1  O   UNL     1      31.495  48.524   9.294  0.00  0.00    -0.460 OA
BRANCH   1   2
ATOM      2  C   UNL     1      31.800  49.842   8.796  0.00  0.00    +0.339 C 
ATOM      3  C   UNL     1      32.486  50.762   9.844  0.00  0.00    +0.214 C 
ATOM      4  C   UNL     1      33.993  50.496   9.979  0.00  0.00    +0.180 C 
ATOM      5  C   UNL     1      34.659  50.475   8.589  0.00  0.00    +0.177 C 
ATOM      6  C   UNL     1      33.907  49.550   7.610  0.00  0.00    +0.179 C 
ATOM     16  O   UNL     1      32.500  49.857   7.552  0.00  0.00    -0.331 OA
BRANCH   5  10
ATOM     10  O   UNL     1      34.720  51.802   8.041  0.00  0.00    -0.386 OA
ATOM     11  H   UNL     1      33.928  51.919   7.476  0.00  0.00    +0.210 HD
ENDBRANCH   5  10
BRANCH   4  12
ATOM     12  O   UNL     1      34.284  49.295  10.686  0.00  0.00    -0.386 OA
ATOM     13  H   UNL     1      34.768  49.507  11.503  0.00  0.00    +0.210 HD
ENDBRANCH   4  12
BRANCH   3  14
ATOM     14  O   UNL     1      32.358  52.153   9.445  0.00  0.00    -0.383 OA
ATOM     15  H   UNL     1      32.315  52.705  10.246  0.00  0.00    +0.210 HD
ENDBRANCH   3  14
BRANCH   6   7
ATOM      7  C   UNL     1      34.201  48.075   7.917  0.00  0.00    +0.190 C 
BRANCH   7   8
ATOM      8  O   UNL     1      34.314  47.301   6.723  0.00  0.00    -0.392 OA
ATOM      9  H   UNL     1      35.216  47.475   6.400  0.00  0.00    +0.210 HD
ENDBRANCH   7   8
ENDBRANCH   6   7
ENDBRANCH   1   2
ENDBRANCH  17   1
TORSDOF 13
ENDMDL
MODEL 7
REMARK VINA RESULT:    -6.987     19.131     21.312
REMARK INTER + INTRA:         -13.157
REMARK INTER:                 -10.768
REMARK INTRA:                  -2.388
REMARK UNBOUND:                -2.493
REMARK  Name = C:\Users\HP\Downloads\Anthraquinone_pdb\AD34.pdb
REMARK  15 active torsions:
REMARK  status: ('A' for Active; 'I' for Inactive)
REMARK    1  A    between atoms: O_1  and  C_28
REMARK    2  A    between atoms: O_1  and  C_33
REMARK    3  A    between atoms: O_4  and  C_23
REMARK    4  A    between atoms: O_5  and  C_24
REMARK    5  A    between atoms: O_6  and  C_25
REMARK    6  A    between atoms: O_8  and  C_29
REMARK    7  A    between atoms: O_10  and  C_37
REMARK    8  A    between atoms: O_11  and  C_38
REMARK    9  A    between atoms: O_12  and  C_40
REMARK   10  A    between atoms: O_13  and  C_42
REMARK   11  A    between atoms: C_15  and  C_17
REMARK   12  A    between atoms: C_22  and  C_35
REMARK   13  A    between atoms: C_26  and  C_32
REMARK   14  A    between atoms: C_32  and  C_41
REMARK   15  A    between atoms: C_39  and  C_42
REMARK                            x       y       z     vdW  Elec       q    Type
REMARK                         _______ _______ _______ _____ _____    ______ ____
ROOT
ATOM     17  C   UNL     1      19.236  38.700  25.476  0.00  0.00    +0.141 A 
ATOM     18  C   UNL     1      19.190  40.081  25.277  0.00  0.00    +0.092 A 
ATOM     19  C   UNL     1      17.971  40.771  25.198  0.00  0.00    +0.132 A 
ATOM     20  C   UNL     1      16.730  40.120  25.107  0.00  0.00    +0.067 A 
ATOM     21  C   UNL     1      16.824  38.706  25.184  0.00  0.00    +0.142 A 
ATOM     47  C   UNL     1      18.010  38.020  25.566  0.00  0.00    +0.101 A 
ENDROOT
BRANCH  20  24
ATOM     24  C   UNL     1      15.392  40.841  25.002  0.00  0.00    +0.004 A 
ATOM     25  C   UNL     1      14.626  41.207  26.152  0.00  0.00    -0.038 A 
ATOM     26  C   UNL     1      15.047  41.015  27.593  0.00  0.00    +0.044 C 
ATOM     27  C   UNL     1      13.348  41.796  26.006  0.00  0.00    +0.050 A 
ATOM     28  C   UNL     1      12.859  42.181  24.770  0.00  0.00    +0.129 A 
ATOM     29  C   UNL     1      13.617  41.949  23.631  0.00  0.00    +0.075 A 
ATOM     30  C   UNL     1      13.174  42.506  22.330  0.00  0.00    +0.202 C 
ATOM     31  C   UNL     1      14.111  42.556  21.198  0.00  0.00    +0.075 A 
ATOM     32  C   UNL     1      13.885  43.361  20.074  0.00  0.00    +0.128 A 
ATOM     33  C   UNL     1      14.826  43.423  19.048  0.00  0.00    +0.046 A 
ATOM     34  C   UNL     1      15.988  42.661  19.135  0.00  0.00    +0.004 A 
ATOM     35  C   UNL     1      16.194  41.822  20.231  0.00  0.00    +0.012 A 
ATOM     38  C   UNL     1      15.254  41.771  21.267  0.00  0.00    +0.037 A 
ATOM     39  C   UNL     1      15.399  40.846  22.410  0.00  0.00    +0.195 C 
ATOM     40  O   UNL     1      15.887  39.734  22.240  0.00  0.00    -0.287 OA
ATOM     41  O   UNL     1      12.063  43.016  22.217  0.00  0.00    -0.286 OA
ATOM     44  C   UNL     1      14.825  41.228  23.730  0.00  0.00    +0.045 A 
BRANCH  32  36
ATOM     36  O   UNL     1      12.765  44.128  19.914  0.00  0.00    -0.506 OA
ATOM     37  H   UNL     1      12.368  44.285  20.807  0.00  0.00    +0.292 HD
ENDBRANCH  32  36
BRANCH  28  42
ATOM     42  O   UNL     1      11.643  42.805  24.766  0.00  0.00    -0.506 OA
ATOM     43  H   UNL     1      10.939  42.137  24.922  0.00  0.00    +0.292 HD
ENDBRANCH  28  42
ENDBRANCH  20  24
BRANCH  47  48
ATOM     48  C   UNL     1      17.927  36.626  26.134  0.00  0.00    +0.167 C 
ATOM     49  C   UNL     1      18.093  36.421  27.616  0.00  0.00    +0.092 C 
ATOM     50  O   UNL     1      17.783  35.635  25.424  0.00  0.00    -0.292 OA
ENDBRANCH  47  48
BRANCH  21  22
ATOM     22  O   UNL     1      15.736  37.944  24.803  0.00  0.00    -0.505 OA
ATOM     23  H   UNL     1      15.213  37.779  25.610  0.00  0.00    +0.292 HD
ENDBRANCH  21  22
BRANCH  19  45
ATOM     45  O   UNL     1      18.132  42.131  25.239  0.00  0.00    -0.506 OA
ATOM     46  H   UNL     1      17.452  42.502  25.823  0.00  0.00    +0.292 HD
ENDBRANCH  19  45
BRANCH  17   1
ATOM      1  O   UNL     1      20.438  38.036  25.639  0.00  0.00    -0.460 OA
BRANCH   1   2
ATOM      2  C   UNL     1      21.490  38.805  26.256  0.00  0.00    +0.339 C 
ATOM      3  C   UNL     1      21.630  38.558  27.783  0.00  0.00    +0.214 C 
ATOM      4  C   UNL     1      22.412  37.279  28.114  0.00  0.00    +0.180 C 
ATOM      5  C   UNL     1      23.732  37.238  27.319  0.00  0.00    +0.177 C 
ATOM      6  C   UNL     1      23.503  37.506  25.818  0.00  0.00    +0.179 C 
ATOM     16  O   UNL     1      22.753  38.717  25.596  0.00  0.00    -0.331 OA
BRANCH   5  10
ATOM     10  O   UNL     1      24.662  38.202  27.841  0.00  0.00    -0.386 OA
ATOM     11  H   UNL     1      24.375  38.418  28.752  0.00  0.00    +0.210 HD
ENDBRANCH   5  10
BRANCH   4  12
ATOM     12  O   UNL     1      21.659  36.092  27.883  0.00  0.00    -0.386 OA
ATOM     13  H   UNL     1      20.733  36.238  28.144  0.00  0.00    +0.210 HD
ENDBRANCH   4  12
BRANCH   3  14
ATOM     14  O   UNL     1      22.366  39.649  28.398  0.00  0.00    -0.383 OA
ATOM     15  H   UNL     1      23.172  39.289  28.811  0.00  0.00    +0.210 HD
ENDBRANCH   3  14
BRANCH   6   7
ATOM      7  C   UNL     1      22.900  36.275  25.128  0.00  0.00    +0.190 C 
BRANCH   7   8
ATOM      8  O   UNL     1      22.431  36.583  23.816  0.00  0.00    -0.392 OA
ATOM      9  H   UNL     1      21.852  37.357  23.936  0.00  0.00    +0.210 HD
ENDBRANCH   7   8
ENDBRANCH   6   7
ENDBRANCH   1   2
ENDBRANCH  17   1
TORSDOF 13
ENDMDL
MODEL 8
REMARK VINA RESULT:    -6.954     22.938     27.492
REMARK INTER + INTRA:         -13.106
REMARK INTER:                 -10.665
REMARK INTRA:                  -2.442
REMARK UNBOUND:                -2.493
REMARK  Name = C:\Users\HP\Downloads\Anthraquinone_pdb\AD34.pdb
REMARK  15 active torsions:
REMARK  status: ('A' for Active; 'I' for Inactive)
REMARK    1  A    between atoms: O_1  and  C_28
REMARK    2  A    between atoms: O_1  and  C_33
REMARK    3  A    between atoms: O_4  and  C_23
REMARK    4  A    between atoms: O_5  and  C_24
REMARK    5  A    between atoms: O_6  and  C_25
REMARK    6  A    between atoms: O_8  and  C_29
REMARK    7  A    between atoms: O_10  and  C_37
REMARK    8  A    between atoms: O_11  and  C_38
REMARK    9  A    between atoms: O_12  and  C_40
REMARK   10  A    between atoms: O_13  and  C_42
REMARK   11  A    between atoms: C_15  and  C_17
REMARK   12  A    between atoms: C_22  and  C_35
REMARK   13  A    between atoms: C_26  and  C_32
REMARK   14  A    between atoms: C_32  and  C_41
REMARK   15  A    between atoms: C_39  and  C_42
REMARK                            x       y       z     vdW  Elec       q    Type
REMARK                         _______ _______ _______ _____ _____    ______ ____
ROOT
ATOM     17  C   UNL     1      22.975  48.145   6.253  0.00  0.00    +0.141 A 
ATOM     18  C   UNL     1      23.062  48.138   4.860  0.00  0.00    +0.092 A 
ATOM     19  C   UNL     1      22.336  49.044   4.074  0.00  0.00    +0.132 A 
ATOM     20  C   UNL     1      21.331  49.875   4.598  0.00  0.00    +0.067 A 
ATOM     21  C   UNL     1      21.179  49.763   6.005  0.00  0.00    +0.142 A 
ATOM     47  C   UNL     1      22.106  49.080   6.840  0.00  0.00    +0.101 A 
ENDROOT
BRANCH  20  24
ATOM     24  C   UNL     1      20.514  50.856   3.768  0.00  0.00    +0.004 A 
ATOM     25  C   UNL     1      20.950  52.193   3.513  0.00  0.00    -0.038 A 
ATOM     26  C   UNL     1      22.273  52.789   3.943  0.00  0.00    +0.044 C 
ATOM     27  C   UNL     1      20.119  53.098   2.811  0.00  0.00    +0.050 A 
ATOM     28  C   UNL     1      18.937  52.692   2.215  0.00  0.00    +0.129 A 
ATOM     29  C   UNL     1      18.526  51.372   2.338  0.00  0.00    +0.075 A 
ATOM     30  C   UNL     1      17.353  50.895   1.566  0.00  0.00    +0.202 C 
ATOM     31  C   UNL     1      17.107  49.453   1.427  0.00  0.00    +0.075 A 
ATOM     32  C   UNL     1      16.245  48.931   0.453  0.00  0.00    +0.128 A 
ATOM     33  C   UNL     1      16.083  47.553   0.317  0.00  0.00    +0.046 A 
ATOM     34  C   UNL     1      16.769  46.694   1.172  0.00  0.00    +0.004 A 
ATOM     35  C   UNL     1      17.590  47.212   2.174  0.00  0.00    +0.012 A 
ATOM     38  C   UNL     1      17.762  48.595   2.301  0.00  0.00    +0.037 A 
ATOM     39  C   UNL     1      18.567  49.187   3.389  0.00  0.00    +0.195 C 
ATOM     40  O   UNL     1      18.572  48.666   4.499  0.00  0.00    -0.287 OA
ATOM     41  O   UNL     1      16.641  51.691   0.961  0.00  0.00    -0.286 OA
ATOM     44  C   UNL     1      19.256  50.486   3.158  0.00  0.00    +0.045 A 
BRANCH  32  36
ATOM     36  O   UNL     1      15.533  49.712  -0.414  0.00  0.00    -0.506 OA
ATOM     37  H   UNL     1      14.696  49.236  -0.643  0.00  0.00    +0.292 HD
ENDBRANCH  32  36
BRANCH  28  42
ATOM     42  O   UNL     1      18.259  53.641   1.504  0.00  0.00    -0.506 OA
ATOM     43  H   UNL     1      18.028  53.276   0.621  0.00  0.00    +0.292 HD
ENDBRANCH  28  42
ENDBRANCH  20  24
BRANCH  47  48
ATOM     48  C   UNL     1      22.200  49.426   8.304  0.00  0.00    +0.167 C 
ATOM     49  C   UNL     1      22.777  50.755   8.714  0.00  0.00    +0.092 C 
ATOM     50  O   UNL     1      21.874  48.638   9.187  0.00  0.00    -0.292 OA
ENDBRANCH  47  48
BRANCH  21  22
ATOM     22  O   UNL     1      20.042  50.280   6.595  0.00  0.00    -0.505 OA
ATOM     23  H   UNL     1      19.343  50.270   5.915  0.00  0.00    +0.292 HD
ENDBRANCH  21  22
BRANCH  19  45
ATOM     45  O   UNL     1      22.730  49.038   2.762  0.00  0.00    -0.506 OA
ATOM     46  H   UNL     1      22.397  48.227   2.346  0.00  0.00    +0.292 HD
ENDBRANCH  19  45
BRANCH  17   1
ATOM      1  O   UNL     1      23.755  47.306   7.028  0.00  0.00    -0.460 OA
BRANCH   1   2
ATOM      2  C   UNL     1      25.179  47.473   6.875  0.00  0.00    +0.339 C 
ATOM      3  C   UNL     1      25.763  48.646   7.709  0.00  0.00    +0.214 C 
ATOM      4  C   UNL     1      25.994  48.278   9.182  0.00  0.00    +0.180 C 
ATOM      5  C   UNL     1      26.769  46.949   9.286  0.00  0.00    +0.177 C 
ATOM      6  C   UNL     1      26.130  45.846   8.418  0.00  0.00    +0.179 C 
ATOM     16  O   UNL     1      25.937  46.277   7.056  0.00  0.00    -0.331 OA
BRANCH   5  10
ATOM     10  O   UNL     1      28.139  47.135   8.891  0.00  0.00    -0.386 OA
ATOM     11  H   UNL     1      28.595  47.586   9.630  0.00  0.00    +0.210 HD
ENDBRANCH   5  10
BRANCH   4  12
ATOM     12  O   UNL     1      24.786  48.205   9.932  0.00  0.00    -0.386 OA
ATOM     13  H   UNL     1      24.025  48.285   9.332  0.00  0.00    +0.210 HD
ENDBRANCH   4  12
BRANCH   3  14
ATOM     14  O   UNL     1      27.061  49.032   7.184  0.00  0.00    -0.383 OA
ATOM     15  H   UNL     1      26.975  49.198   6.228  0.00  0.00    +0.210 HD
ENDBRANCH   3  14
BRANCH   6   7
ATOM      7  C   UNL     1      24.855  45.302   9.076  0.00  0.00    +0.190 C 
BRANCH   7   8
ATOM      8  O   UNL     1      24.942  45.333  10.500  0.00  0.00    -0.392 OA
ATOM      9  H   UNL     1      25.701  44.761  10.713  0.00  0.00    +0.210 HD
ENDBRANCH   7   8
ENDBRANCH   6   7
ENDBRANCH   1   2
ENDBRANCH  17   1
TORSDOF 13
ENDMDL
MODEL 9
REMARK VINA RESULT:    -6.947      1.951      4.351
REMARK INTER + INTRA:         -13.095
REMARK INTER:                 -11.196
REMARK INTRA:                  -1.899
REMARK UNBOUND:                -2.493
REMARK  Name = C:\Users\HP\Downloads\Anthraquinone_pdb\AD34.pdb
REMARK  15 active torsions:
REMARK  status: ('A' for Active; 'I' for Inactive)
REMARK    1  A    between atoms: O_1  and  C_28
REMARK    2  A    between atoms: O_1  and  C_33
REMARK    3  A    between atoms: O_4  and  C_23
REMARK    4  A    between atoms: O_5  and  C_24
REMARK    5  A    between atoms: O_6  and  C_25
REMARK    6  A    between atoms: O_8  and  C_29
REMARK    7  A    between atoms: O_10  and  C_37
REMARK    8  A    between atoms: O_11  and  C_38
REMARK    9  A    between atoms: O_12  and  C_40
REMARK   10  A    between atoms: O_13  and  C_42
REMARK   11  A    between atoms: C_15  and  C_17
REMARK   12  A    between atoms: C_22  and  C_35
REMARK   13  A    between atoms: C_26  and  C_32
REMARK   14  A    between atoms: C_32  and  C_41
REMARK   15  A    between atoms: C_39  and  C_42
REMARK                            x       y       z     vdW  Elec       q    Type
REMARK                         _______ _______ _______ _____ _____    ______ ____
ROOT
ATOM     17  C   UNL     1      22.163  58.322  26.702  0.00  0.00    +0.141 A 
ATOM     18  C   UNL     1      22.363  59.590  27.250  0.00  0.00    +0.092 A 
ATOM     19  C   UNL     1      21.992  59.888  28.569  0.00  0.00    +0.132 A 
ATOM     20  C   UNL     1      21.221  59.019  29.359  0.00  0.00    +0.067 A 
ATOM     21  C   UNL     1      20.925  57.785  28.723  0.00  0.00    +0.142 A 
ATOM     47  C   UNL     1      21.547  57.358  27.517  0.00  0.00    +0.101 A 
ENDROOT
BRANCH  20  24
ATOM     24  C   UNL     1      20.787  59.321  30.788  0.00  0.00    +0.004 A 
ATOM     25  C   UNL     1      19.556  59.982  31.091  0.00  0.00    -0.038 A 
ATOM     26  C   UNL     1      18.502  60.394  30.086  0.00  0.00    +0.044 C 
ATOM     27  C   UNL     1      19.234  60.322  32.426  0.00  0.00    +0.050 A 
ATOM     28  C   UNL     1      20.006  59.897  33.494  0.00  0.00    +0.129 A 
ATOM     29  C   UNL     1      21.153  59.153  33.257  0.00  0.00    +0.075 A 
ATOM     30  C   UNL     1      21.889  58.558  34.399  0.00  0.00    +0.202 C 
ATOM     31  C   UNL     1      22.893  57.512  34.156  0.00  0.00    +0.075 A 
ATOM     32  C   UNL     1      23.367  56.678  35.178  0.00  0.00    +0.128 A 
ATOM     33  C   UNL     1      24.278  55.662  34.895  0.00  0.00    +0.046 A 
ATOM     34  C   UNL     1      24.732  55.491  33.590  0.00  0.00    +0.004 A 
ATOM     35  C   UNL     1      24.298  56.350  32.580  0.00  0.00    +0.012 A 
ATOM     38  C   UNL     1      23.374  57.362  32.863  0.00  0.00    +0.037 A 
ATOM     39  C   UNL     1      22.942  58.336  31.839  0.00  0.00    +0.195 C 
ATOM     40  O   UNL     1      23.737  58.728  30.992  0.00  0.00    -0.287 OA
ATOM     41  O   UNL     1      21.597  58.861  35.552  0.00  0.00    -0.286 OA
ATOM     44  C   UNL     1      21.580  58.930  31.931  0.00  0.00    +0.045 A 
BRANCH  32  36
ATOM     36  O   UNL     1      22.974  56.793  36.482  0.00  0.00    -0.506 OA
ATOM     37  H   UNL     1      23.763  57.053  37.021  0.00  0.00    +0.292 HD
ENDBRANCH  32  36
BRANCH  28  42
ATOM     42  O   UNL     1      19.551  60.227  34.740  0.00  0.00    -0.506 OA
ATOM     43  H   UNL     1      18.587  60.042  34.789  0.00  0.00    +0.292 HD
ENDBRANCH  28  42
ENDBRANCH  20  24
BRANCH  47  48
ATOM     48  C   UNL     1      21.610  55.891  27.179  0.00  0.00    +0.167 C 
ATOM     49  C   UNL     1      20.587  55.303  26.243  0.00  0.00    +0.092 C 
ATOM     50  O   UNL     1      22.436  55.135  27.683  0.00  0.00    -0.292 OA
ENDBRANCH  47  48
BRANCH  21  22
ATOM     22  O   UNL     1      19.934  56.982  29.254  0.00  0.00    -0.505 OA
ATOM     23  H   UNL     1      19.271  56.853  28.550  0.00  0.00    +0.292 HD
ENDBRANCH  21  22
BRANCH  19  45
ATOM     45  O   UNL     1      22.478  61.096  28.995  0.00  0.00    -0.506 OA
ATOM     46  H   UNL     1      23.187  60.931  29.637  0.00  0.00    +0.292 HD
ENDBRANCH  19  45
BRANCH  17   1
ATOM      1  O   UNL     1      22.607  58.009  25.431  0.00  0.00    -0.460 OA
BRANCH   1   2
ATOM      2  C   UNL     1      23.825  57.241  25.374  0.00  0.00    +0.339 C 
ATOM      3  C   UNL     1      23.974  56.401  24.075  0.00  0.00    +0.214 C 
ATOM      4  C   UNL     1      24.475  57.228  22.881  0.00  0.00    +0.180 C 
ATOM      5  C   UNL     1      25.719  58.044  23.281  0.00  0.00    +0.177 C 
ATOM      6  C   UNL     1      25.490  58.834  24.585  0.00  0.00    +0.179 C 
ATOM     16  O   UNL     1      25.010  57.988  25.650  0.00  0.00    -0.331 OA
BRANCH   5  10
ATOM     10  O   UNL     1      26.857  57.180  23.440  0.00  0.00    -0.386 OA
ATOM     11  H   UNL     1      27.545  57.691  23.914  0.00  0.00    +0.210 HD
ENDBRANCH   5  10
BRANCH   4  12
ATOM     12  O   UNL     1      23.474  58.084  22.340  0.00  0.00    -0.386 OA
ATOM     13  H   UNL     1      22.849  58.338  23.041  0.00  0.00    +0.210 HD
ENDBRANCH   4  12
BRANCH   3  14
ATOM     14  O   UNL     1      24.954  55.348  24.273  0.00  0.00    -0.383 OA
ATOM     15  H   UNL     1      25.761  55.739  24.655  0.00  0.00    +0.210 HD
ENDBRANCH   3  14
BRANCH   6   7
ATOM      7  C   UNL     1      24.606  60.063  24.332  0.00  0.00    +0.190 C 
BRANCH   7   8
ATOM      8  O   UNL     1      24.941  60.710  23.105  0.00  0.00    -0.392 OA
ATOM      9  H   UNL     1      25.097  59.981  22.477  0.00  0.00    +0.210 HD
ENDBRANCH   7   8
ENDBRANCH   6   7
ENDBRANCH   1   2
ENDBRANCH  17   1
TORSDOF 13
ENDMDL
