MODEL 1
REMARK VINA RESULT:    -8.171      0.000      0.000
REMARK INTER + INTRA:         -11.942
REMARK INTER:                 -11.276
REMARK INTRA:                  -0.666
REMARK UNBOUND:                -0.666
REMARK  Name = C:\Users\HP\Downloads\Anthraquinone_pdb\AD35.pdb
REMARK  11 active torsions:
REMARK  status: ('A' for Active; 'I' for Inactive)
REMARK    1  A    between atoms: O_1  and  C_19
REMARK    2  A    between atoms: O_2  and  C_21
REMARK    3  A    between atoms: O_2  and  C_33
REMARK    4  A    between atoms: O_5  and  C_22
REMARK    5  A    between atoms: O_6  and  C_23
REMARK    6  A    between atoms: O_7  and  C_25
REMARK    7  A    between atoms: O_8  and  C_28
REMARK    8  A    between atoms: C_11  and  C_14
REMARK    9  A    between atoms: C_13  and  C_22
REMARK   10  A    between atoms: C_24  and  C_31
REMARK   11  A    between atoms: C_31  and  C_32
REMARK                            x       y       z     vdW  Elec       q    Type
REMARK                         _______ _______ _______ _____ _____    ______ ____
ROOT
ATOM      3  C   UNL     1      22.217  56.026  29.624  0.00  0.00    +0.129 A 
ATOM      4  C   UNL     1      23.300  56.901  29.526  0.00  0.00    +0.052 A 
ATOM      5  C   UNL     1      23.509  57.627  28.356  0.00  0.00    -0.010 A 
ATOM      9  C   UNL     1      22.636  57.483  27.277  0.00  0.00    +0.006 A 
ATOM     25  C   UNL     1      21.547  56.607  27.372  0.00  0.00    +0.045 A 
ATOM     26  C   UNL     1      20.626  56.461  26.225  0.00  0.00    +0.195 C 
ATOM     27  C   UNL     1      19.481  55.535  26.338  0.00  0.00    +0.037 A 
ATOM     28  C   UNL     1      18.600  55.390  25.260  0.00  0.00    +0.012 A 
ATOM     29  C   UNL     1      17.515  54.518  25.358  0.00  0.00    +0.004 A 
ATOM     30  C   UNL     1      17.307  53.792  26.529  0.00  0.00    +0.046 A 
ATOM     31  C   UNL     1      18.182  53.934  27.606  0.00  0.00    +0.128 A 
ATOM     34  C   UNL     1      19.272  54.808  27.511  0.00  0.00    +0.075 A 
ATOM     35  C   UNL     1      20.192  54.953  28.658  0.00  0.00    +0.202 C 
ATOM     36  O   UNL     1      20.008  54.317  29.687  0.00  0.00    -0.286 OA
ATOM     37  O   UNL     1      20.768  57.076  25.175  0.00  0.00    -0.287 OA
ATOM     38  C   UNL     1      21.337  55.879  28.545  0.00  0.00    +0.075 A 
ENDROOT
BRANCH   9  10
ATOM     10  C   UNL     1      22.923  58.275  26.091  0.00  0.00    +0.067 A 
ATOM     11  C   UNL     1      22.313  59.516  25.924  0.00  0.00    +0.132 A 
ATOM     12  C   UNL     1      22.587  60.278  24.787  0.00  0.00    +0.092 A 
ATOM     13  C   UNL     1      23.468  59.795  23.821  0.00  0.00    +0.134 A 
ATOM     14  C   UNL     1      24.076  58.551  23.990  0.00  0.00    +0.101 A 
ATOM     22  C   UNL     1      23.802  57.790  25.126  0.00  0.00    +0.145 A 
BRANCH  14  15
ATOM     15  C   UNL     1      24.998  58.048  22.976  0.00  0.00    +0.167 C 
ATOM     16  C   UNL     1      26.502  58.125  23.206  0.00  0.00    +0.092 C 
ATOM     17  O   UNL     1      24.582  57.551  21.913  0.00  0.00    -0.292 OA
ENDBRANCH  14  15
BRANCH  13  18
ATOM     18  O   UNL     1      23.721  60.555  22.717  0.00  0.00    -0.506 OA
ATOM     19  H   UNL     1      23.250  61.401  22.769  0.00  0.00    +0.292 HD
ENDBRANCH  13  18
BRANCH  11  20
ATOM     20  O   UNL     1      21.447  60.015  26.852  0.00  0.00    -0.506 OA
ATOM     21  H   UNL     1      21.914  60.524  27.533  0.00  0.00    +0.292 HD
ENDBRANCH  11  20
BRANCH  22  23
ATOM     23  O   UNL     1      24.402  56.572  25.285  0.00  0.00    -0.494 OA
ATOM     24  C   UNL     1      23.822  55.473  24.590  0.00  0.00    +0.277 C 
ENDBRANCH  22  23
ENDBRANCH   9  10
BRANCH   3   1
ATOM      1  O   UNL     1      22.072  55.348  30.798  0.00  0.00    -0.506 OA
ATOM      2  H   UNL     1      21.438  55.814  31.370  0.00  0.00    +0.292 HD
ENDBRANCH   3   1
BRANCH  31  32
ATOM     32  O   UNL     1      17.918  53.193  28.719  0.00  0.00    -0.506 OA
ATOM     33  H   UNL     1      17.147  52.623  28.579  0.00  0.00    +0.292 HD
ENDBRANCH  31  32
BRANCH   5   6
ATOM      6  C   UNL     1      24.688  58.548  28.305  0.00  0.00    +0.191 C 
BRANCH   6   7
ATOM      7  O   UNL     1      25.882  57.778  28.297  0.00  0.00    -0.390 OA
ATOM      8  H   UNL     1      26.469  58.105  29.000  0.00  0.00    +0.210 HD
ENDBRANCH   6   7
ENDBRANCH   5   6
TORSDOF 9
ENDMDL
MODEL 2
REMARK VINA RESULT:    -7.828      2.841      4.359
REMARK INTER + INTRA:         -11.469
REMARK INTER:                 -11.153
REMARK INTRA:                  -0.316
REMARK UNBOUND:                -0.666
REMARK  Name = C:\Users\HP\Downloads\Anthraquinone_pdb\AD35.pdb
REMARK  11 active torsions:
REMARK  status: ('A' for Active; 'I' for Inactive)
REMARK    1  A    between atoms: O_1  and  C_19
REMARK    2  A    between atoms: O_2  and  C_21
REMARK    3  A    between atoms: O_2  and  C_33
REMARK    4  A    between atoms: O_5  and  C_22
REMARK    5  A    between atoms: O_6  and  C_23
REMARK    6  A    between atoms: O_7  and  C_25
REMARK    7  A    between atoms: O_8  and  C_28
REMARK    8  A    between atoms: C_11  and  C_14
REMARK    9  A    between atoms: C_13  and  C_22
REMARK   10  A    between atoms: C_24  and  C_31
REMARK   11  A    between atoms: C_31  and  C_32
REMARK                            x       y       z     vdW  Elec       q    Type
REMARK                         _______ _______ _______ _____ _____    ______ ____
ROOT
ATOM      3  C   UNL     1      21.386  56.312  28.180  0.00  0.00    +0.129 A 
ATOM      4  C   UNL     1      22.221  55.904  27.139  0.00  0.00    +0.052 A 
ATOM      5  C   UNL     1      22.738  56.842  26.249  0.00  0.00    -0.010 A 
ATOM      9  C   UNL     1      22.424  58.194  26.396  0.00  0.00    +0.006 A 
ATOM     25  C   UNL     1      21.587  58.607  27.440  0.00  0.00    +0.045 A 
ATOM     26  C   UNL     1      21.260  60.041  27.589  0.00  0.00    +0.195 C 
ATOM     27  C   UNL     1      20.378  60.463  28.696  0.00  0.00    +0.037 A 
ATOM     28  C   UNL     1      20.062  61.819  28.849  0.00  0.00    +0.012 A 
ATOM     29  C   UNL     1      19.230  62.227  29.892  0.00  0.00    +0.004 A 
ATOM     30  C   UNL     1      18.713  61.288  30.782  0.00  0.00    +0.046 A 
ATOM     31  C   UNL     1      19.026  59.937  30.633  0.00  0.00    +0.128 A 
ATOM     34  C   UNL     1      19.860  59.523  29.587  0.00  0.00    +0.075 A 
ATOM     35  C   UNL     1      20.186  58.089  29.439  0.00  0.00    +0.202 C 
ATOM     36  O   UNL     1      19.734  57.265  30.222  0.00  0.00    -0.286 OA
ATOM     37  O   UNL     1      21.688  60.903  26.832  0.00  0.00    -0.287 OA
ATOM     38  C   UNL     1      21.069  57.667  28.333  0.00  0.00    +0.075 A 
ENDROOT
BRANCH   9  10
ATOM     10  C   UNL     1      23.002  59.111  25.426  0.00  0.00    +0.067 A 
ATOM     11  C   UNL     1      24.271  59.642  25.647  0.00  0.00    +0.132 A 
ATOM     12  C   UNL     1      24.828  60.522  24.718  0.00  0.00    +0.092 A 
ATOM     13  C   UNL     1      24.114  60.868  23.571  0.00  0.00    +0.134 A 
ATOM     14  C   UNL     1      22.843  60.335  23.352  0.00  0.00    +0.101 A 
ATOM     22  C   UNL     1      22.287  59.456  24.281  0.00  0.00    +0.145 A 
BRANCH  14  15
ATOM     15  C   UNL     1      22.100  60.699  22.151  0.00  0.00    +0.167 C 
ATOM     16  C   UNL     1      21.307  61.998  22.107  0.00  0.00    +0.092 C 
ATOM     17  O   UNL     1      22.096  59.964  21.145  0.00  0.00    -0.292 OA
ENDBRANCH  14  15
BRANCH  13  18
ATOM     18  O   UNL     1      24.677  61.729  22.676  0.00  0.00    -0.506 OA
ATOM     19  H   UNL     1      25.229  62.384  23.132  0.00  0.00    +0.292 HD
ENDBRANCH  13  18
BRANCH  11  20
ATOM     20  O   UNL     1      24.993  59.323  26.759  0.00  0.00    -0.506 OA
ATOM     21  H   UNL     1      24.775  58.433  27.077  0.00  0.00    +0.292 HD
ENDBRANCH  11  20
BRANCH  22  23
ATOM     23  O   UNL     1      21.042  58.938  24.059  0.00  0.00    -0.494 OA
ATOM     24  C   UNL     1      20.967  57.760  23.263  0.00  0.00    +0.277 C 
ENDBRANCH  22  23
ENDBRANCH   9  10
BRANCH   3   1
ATOM      1  O   UNL     1      20.917  55.340  29.014  0.00  0.00    -0.506 OA
ATOM      2  H   UNL     1      20.862  55.685  29.922  0.00  0.00    +0.292 HD
ENDBRANCH   3   1
BRANCH  31  32
ATOM     32  O   UNL     1      18.485  59.074  31.539  0.00  0.00    -0.506 OA
ATOM     33  H   UNL     1      19.162  58.479  31.896  0.00  0.00    +0.292 HD
ENDBRANCH  31  32
BRANCH   5   6
ATOM      6  C   UNL     1      23.626  56.349  25.149  0.00  0.00    +0.191 C 
BRANCH   6   7
ATOM      7  O   UNL     1      23.583  54.929  25.116  0.00  0.00    -0.390 OA
ATOM      8  H   UNL     1      22.653  54.645  25.104  0.00  0.00    +0.210 HD
ENDBRANCH   6   7
ENDBRANCH   5   6
TORSDOF 9
ENDMDL
MODEL 3
REMARK VINA RESULT:    -7.756      4.161      6.186
REMARK INTER + INTRA:         -11.370
REMARK INTER:                 -10.653
REMARK INTRA:                  -0.717
REMARK UNBOUND:                -0.666
REMARK  Name = C:\Users\HP\Downloads\Anthraquinone_pdb\AD35.pdb
REMARK  11 active torsions:
REMARK  status: ('A' for Active; 'I' for Inactive)
REMARK    1  A    between atoms: O_1  and  C_19
REMARK    2  A    between atoms: O_2  and  C_21
REMARK    3  A    between atoms: O_2  and  C_33
REMARK    4  A    between atoms: O_5  and  C_22
REMARK    5  A    between atoms: O_6  and  C_23
REMARK    6  A    between atoms: O_7  and  C_25
REMARK    7  A    between atoms: O_8  and  C_28
REMARK    8  A    between atoms: C_11  and  C_14
REMARK    9  A    between atoms: C_13  and  C_22
REMARK   10  A    between atoms: C_24  and  C_31
REMARK   11  A    between atoms: C_31  and  C_32
REMARK                            x       y       z     vdW  Elec       q    Type
REMARK                         _______ _______ _______ _____ _____    ______ ____
ROOT
ATOM      3  C   UNL     1      22.679  56.961  29.906  0.00  0.00    +0.129 A 
ATOM      4  C   UNL     1      23.171  58.237  30.185  0.00  0.00    +0.052 A 
ATOM      5  C   UNL     1      22.320  59.338  30.146  0.00  0.00    -0.010 A 
ATOM      9  C   UNL     1      20.971  59.171  29.827  0.00  0.00    +0.006 A 
ATOM     25  C   UNL     1      20.474  57.892  29.547  0.00  0.00    +0.045 A 
ATOM     26  C   UNL     1      19.045  57.723  29.211  0.00  0.00    +0.195 C 
ATOM     27  C   UNL     1      18.532  56.368  28.920  0.00  0.00    +0.037 A 
ATOM     28  C   UNL     1      17.179  56.195  28.603  0.00  0.00    +0.012 A 
ATOM     29  C   UNL     1      16.686  54.919  28.327  0.00  0.00    +0.004 A 
ATOM     30  C   UNL     1      17.538  53.817  28.366  0.00  0.00    +0.046 A 
ATOM     31  C   UNL     1      18.886  53.986  28.682  0.00  0.00    +0.128 A 
ATOM     34  C   UNL     1      19.385  55.265  28.960  0.00  0.00    +0.075 A 
ATOM     35  C   UNL     1      20.814  55.433  29.295  0.00  0.00    +0.202 C 
ATOM     36  O   UNL     1      21.562  54.465  29.332  0.00  0.00    -0.286 OA
ATOM     37  O   UNL     1      18.257  58.660  29.162  0.00  0.00    -0.287 OA
ATOM     38  C   UNL     1      21.327  56.787  29.587  0.00  0.00    +0.075 A 
ENDROOT
BRANCH   9  10
ATOM     10  C   UNL     1      20.148  60.370  29.805  0.00  0.00    +0.067 A 
ATOM     11  C   UNL     1      20.113  61.164  28.661  0.00  0.00    +0.132 A 
ATOM     12  C   UNL     1      19.324  62.315  28.638  0.00  0.00    +0.092 A 
ATOM     13  C   UNL     1      18.574  62.668  29.759  0.00  0.00    +0.134 A 
ATOM     14  C   UNL     1      18.612  61.872  30.904  0.00  0.00    +0.101 A 
ATOM     22  C   UNL     1      19.401  60.721  30.927  0.00  0.00    +0.145 A 
BRANCH  14  15
ATOM     15  C   UNL     1      17.826  62.244  32.075  0.00  0.00    +0.167 C 
ATOM     16  C   UNL     1      16.540  61.498  32.402  0.00  0.00    +0.092 C 
ATOM     17  O   UNL     1      18.185  63.171  32.827  0.00  0.00    -0.292 OA
ENDBRANCH  14  15
BRANCH  13  18
ATOM     18  O   UNL     1      17.811  63.797  29.715  0.00  0.00    -0.506 OA
ATOM     19  H   UNL     1      17.628  64.123  30.611  0.00  0.00    +0.292 HD
ENDBRANCH  13  18
BRANCH  11  20
ATOM     20  O   UNL     1      20.835  60.845  27.549  0.00  0.00    -0.506 OA
ATOM     21  H   UNL     1      20.271  60.808  26.761  0.00  0.00    +0.292 HD
ENDBRANCH  11  20
BRANCH  22  23
ATOM     23  O   UNL     1      19.433  59.946  32.052  0.00  0.00    -0.494 OA
ATOM     24  C   UNL     1      20.338  60.338  33.078  0.00  0.00    +0.277 C 
ENDBRANCH  22  23
ENDBRANCH   9  10
BRANCH   3   1
ATOM      1  O   UNL     1      23.568  55.928  29.964  0.00  0.00    -0.506 OA
ATOM      2  H   UNL     1      24.239  56.034  29.268  0.00  0.00    +0.292 HD
ENDBRANCH   3   1
BRANCH  31  32
ATOM     32  O   UNL     1      19.662  52.865  28.703  0.00  0.00    -0.506 OA
ATOM     33  H   UNL     1      20.077  52.749  29.571  0.00  0.00    +0.292 HD
ENDBRANCH  31  32
BRANCH   5   6
ATOM      6  C   UNL     1      22.901  60.684  30.451  0.00  0.00    +0.191 C 
BRANCH   6   7
ATOM      7  O   UNL     1      23.503  61.210  29.276  0.00  0.00    -0.390 OA
ATOM      8  H   UNL     1      23.054  60.834  28.500  0.00  0.00    +0.210 HD
ENDBRANCH   6   7
ENDBRANCH   5   6
TORSDOF 9
ENDMDL
MODEL 4
REMARK VINA RESULT:    -7.349      1.498      4.694
REMARK INTER + INTRA:         -10.808
REMARK INTER:                 -10.102
REMARK INTRA:                  -0.707
REMARK UNBOUND:                -0.666
REMARK  Name = C:\Users\HP\Downloads\Anthraquinone_pdb\AD35.pdb
REMARK  11 active torsions:
REMARK  status: ('A' for Active; 'I' for Inactive)
REMARK    1  A    between atoms: O_1  and  C_19
REMARK    2  A    between atoms: O_2  and  C_21
REMARK    3  A    between atoms: O_2  and  C_33
REMARK    4  A    between atoms: O_5  and  C_22
REMARK    5  A    between atoms: O_6  and  C_23
REMARK    6  A    between atoms: O_7  and  C_25
REMARK    7  A    between atoms: O_8  and  C_28
REMARK    8  A    between atoms: C_11  and  C_14
REMARK    9  A    between atoms: C_13  and  C_22
REMARK   10  A    between atoms: C_24  and  C_31
REMARK   11  A    between atoms: C_31  and  C_32
REMARK                            x       y       z     vdW  Elec       q    Type
REMARK                         _______ _______ _______ _____ _____    ______ ____
ROOT
ATOM      3  C   UNL     1      19.685  55.454  27.377  0.00  0.00    +0.129 A 
ATOM      4  C   UNL     1      19.585  55.640  25.998  0.00  0.00    +0.052 A 
ATOM      5  C   UNL     1      20.638  56.219  25.293  0.00  0.00    -0.010 A 
ATOM      9  C   UNL     1      21.795  56.616  25.963  0.00  0.00    +0.006 A 
ATOM     25  C   UNL     1      21.899  56.431  27.348  0.00  0.00    +0.045 A 
ATOM     26  C   UNL     1      23.129  56.853  28.050  0.00  0.00    +0.195 C 
ATOM     27  C   UNL     1      23.227  56.650  29.510  0.00  0.00    +0.037 A 
ATOM     28  C   UNL     1      24.388  57.044  30.186  0.00  0.00    +0.012 A 
ATOM     29  C   UNL     1      24.489  56.856  31.565  0.00  0.00    +0.004 A 
ATOM     30  C   UNL     1      23.436  56.276  32.270  0.00  0.00    +0.046 A 
ATOM     31  C   UNL     1      22.278  55.883  31.599  0.00  0.00    +0.128 A 
ATOM     34  C   UNL     1      22.172  56.070  30.216  0.00  0.00    +0.075 A 
ATOM     35  C   UNL     1      20.942  55.648  29.515  0.00  0.00    +0.202 C 
ATOM     36  O   UNL     1      20.018  55.137  30.133  0.00  0.00    -0.286 OA
ATOM     37  O   UNL     1      24.080  57.368  27.475  0.00  0.00    -0.287 OA
ATOM     38  C   UNL     1      20.845  55.849  28.055  0.00  0.00    +0.075 A 
ENDROOT
BRANCH   9  10
ATOM     10  C   UNL     1      22.848  57.214  25.156  0.00  0.00    +0.067 A 
ATOM     11  C   UNL     1      23.855  56.410  24.628  0.00  0.00    +0.132 A 
ATOM     12  C   UNL     1      24.866  56.980  23.854  0.00  0.00    +0.092 A 
ATOM     13  C   UNL     1      24.867  58.354  23.611  0.00  0.00    +0.134 A 
ATOM     14  C   UNL     1      23.857  59.157  24.142  0.00  0.00    +0.101 A 
ATOM     22  C   UNL     1      22.847  58.586  24.917  0.00  0.00    +0.145 A 
BRANCH  14  15
ATOM     15  C   UNL     1      23.860  60.593  23.886  0.00  0.00    +0.167 C 
ATOM     16  C   UNL     1      22.819  61.207  22.961  0.00  0.00    +0.092 C 
ATOM     17  O   UNL     1      24.706  61.342  24.413  0.00  0.00    -0.292 OA
ENDBRANCH  14  15
BRANCH  13  18
ATOM     18  O   UNL     1      25.864  58.891  22.852  0.00  0.00    -0.506 OA
ATOM     19  H   UNL     1      26.665  59.025  23.384  0.00  0.00    +0.292 HD
ENDBRANCH  13  18
BRANCH  11  20
ATOM     20  O   UNL     1      23.882  55.064  24.848  0.00  0.00    -0.506 OA
ATOM     21  H   UNL     1      24.120  54.579  24.042  0.00  0.00    +0.292 HD
ENDBRANCH  11  20
BRANCH  22  23
ATOM     23  O   UNL     1      21.861  59.379  25.433  0.00  0.00    -0.494 OA
ATOM     24  C   UNL     1      22.166  60.087  26.630  0.00  0.00    +0.277 C 
ENDBRANCH  22  23
ENDBRANCH   9  10
BRANCH   3   1
ATOM      1  O   UNL     1      18.618  54.880  28.004  0.00  0.00    -0.506 OA
ATOM      2  H   UNL     1      18.072  54.407  27.353  0.00  0.00    +0.292 HD
ENDBRANCH   3   1
BRANCH  31  32
ATOM     32  O   UNL     1      21.288  55.323  32.352  0.00  0.00    -0.506 OA
ATOM     33  H   UNL     1      21.495  54.400  32.562  0.00  0.00    +0.292 HD
ENDBRANCH  31  32
BRANCH   5   6
ATOM      6  C   UNL     1      20.476  56.396  23.815  0.00  0.00    +0.191 C 
BRANCH   6   7
ATOM      7  O   UNL     1      19.807  57.624  23.563  0.00  0.00    -0.390 OA
ATOM      8  H   UNL     1      19.528  57.642  22.632  0.00  0.00    +0.210 HD
ENDBRANCH   6   7
ENDBRANCH   5   6
TORSDOF 9
ENDMDL
MODEL 5
REMARK VINA RESULT:    -7.340      2.685      4.222
REMARK INTER + INTRA:         -10.796
REMARK INTER:                 -10.153
REMARK INTRA:                  -0.643
REMARK UNBOUND:                -0.666
REMARK  Name = C:\Users\HP\Downloads\Anthraquinone_pdb\AD35.pdb
REMARK  11 active torsions:
REMARK  status: ('A' for Active; 'I' for Inactive)
REMARK    1  A    between atoms: O_1  and  C_19
REMARK    2  A    between atoms: O_2  and  C_21
REMARK    3  A    between atoms: O_2  and  C_33
REMARK    4  A    between atoms: O_5  and  C_22
REMARK    5  A    between atoms: O_6  and  C_23
REMARK    6  A    between atoms: O_7  and  C_25
REMARK    7  A    between atoms: O_8  and  C_28
REMARK    8  A    between atoms: C_11  and  C_14
REMARK    9  A    between atoms: C_13  and  C_22
REMARK   10  A    between atoms: C_24  and  C_31
REMARK   11  A    between atoms: C_31  and  C_32
REMARK                            x       y       z     vdW  Elec       q    Type
REMARK                         _______ _______ _______ _____ _____    ______ ____
ROOT
ATOM      3  C   UNL     1      21.211  55.993  27.638  0.00  0.00    +0.129 A 
ATOM      4  C   UNL     1      22.013  55.590  26.569  0.00  0.00    +0.052 A 
ATOM      5  C   UNL     1      22.658  56.541  25.781  0.00  0.00    -0.010 A 
ATOM      9  C   UNL     1      22.504  57.900  26.058  0.00  0.00    +0.006 A 
ATOM     25  C   UNL     1      21.702  58.309  27.130  0.00  0.00    +0.045 A 
ATOM     26  C   UNL     1      21.545  59.750  27.417  0.00  0.00    +0.195 C 
ATOM     27  C   UNL     1      20.697  60.167  28.551  0.00  0.00    +0.037 A 
ATOM     28  C   UNL     1      20.543  61.530  28.835  0.00  0.00    +0.012 A 
ATOM     29  C   UNL     1      19.744  61.933  29.905  0.00  0.00    +0.004 A 
ATOM     30  C   UNL     1      19.100  60.982  30.693  0.00  0.00    +0.046 A 
ATOM     31  C   UNL     1      19.251  59.624  30.414  0.00  0.00    +0.128 A 
ATOM     34  C   UNL     1      20.052  59.215  29.341  0.00  0.00    +0.075 A 
ATOM     35  C   UNL     1      20.206  57.773  29.055  0.00  0.00    +0.202 C 
ATOM     36  O   UNL     1      19.642  56.938  29.748  0.00  0.00    -0.286 OA
ATOM     37  O   UNL     1      22.090  60.623  26.753  0.00  0.00    -0.287 OA
ATOM     38  C   UNL     1      21.055  57.356  27.921  0.00  0.00    +0.075 A 
ENDROOT
BRANCH   9  10
ATOM     10  C   UNL     1      23.209  58.829  25.188  0.00  0.00    +0.067 A 
ATOM     11  C   UNL     1      22.534  59.438  24.133  0.00  0.00    +0.132 A 
ATOM     12  C   UNL     1      23.207  60.330  23.298  0.00  0.00    +0.092 A 
ATOM     13  C   UNL     1      24.555  60.610  23.521  0.00  0.00    +0.134 A 
ATOM     14  C   UNL     1      25.230  59.999  24.578  0.00  0.00    +0.101 A 
ATOM     22  C   UNL     1      24.556  59.107  25.412  0.00  0.00    +0.145 A 
BRANCH  14  15
ATOM     15  C   UNL     1      26.640  60.294  24.808  0.00  0.00    +0.167 C 
ATOM     16  C   UNL     1      27.714  59.356  24.274  0.00  0.00    +0.092 C 
ATOM     17  O   UNL     1      26.993  61.309  25.438  0.00  0.00    -0.292 OA
ENDBRANCH  14  15
BRANCH  13  18
ATOM     18  O   UNL     1      25.194  61.484  22.692  0.00  0.00    -0.506 OA
ATOM     19  H   UNL     1      24.844  62.382  22.807  0.00  0.00    +0.292 HD
ENDBRANCH  13  18
BRANCH  11  20
ATOM     20  O   UNL     1      21.215  59.183  23.891  0.00  0.00    -0.506 OA
ATOM     21  H   UNL     1      20.700  60.004  23.846  0.00  0.00    +0.292 HD
ENDBRANCH  11  20
BRANCH  22  23
ATOM     23  O   UNL     1      25.224  58.513  26.446  0.00  0.00    -0.494 OA
ATOM     24  C   UNL     1      25.248  59.214  27.684  0.00  0.00    +0.277 C 
ENDBRANCH  22  23
ENDBRANCH   9  10
BRANCH   3   1
ATOM      1  O   UNL     1      20.611  55.010  28.368  0.00  0.00    -0.506 OA
ATOM      2  H   UNL     1      20.909  55.059  29.292  0.00  0.00    +0.292 HD
ENDBRANCH   3   1
BRANCH  31  32
ATOM     32  O   UNL     1      18.591  58.749  31.226  0.00  0.00    -0.506 OA
ATOM     33  H   UNL     1      18.578  57.861  30.837  0.00  0.00    +0.292 HD
ENDBRANCH  31  32
BRANCH   5   6
ATOM      6  C   UNL     1      23.503  56.052  24.646  0.00  0.00    +0.191 C 
BRANCH   6   7
ATOM      7  O   UNL     1      22.664  55.724  23.547  0.00  0.00    -0.390 OA
ATOM      8  H   UNL     1      22.790  56.389  22.850  0.00  0.00    +0.210 HD
ENDBRANCH   6   7
ENDBRANCH   5   6
TORSDOF 9
ENDMDL
MODEL 6
REMARK VINA RESULT:    -7.039      5.639      8.997
REMARK INTER + INTRA:         -10.380
REMARK INTER:                  -9.702
REMARK INTRA:                  -0.678
REMARK UNBOUND:                -0.666
REMARK  Name = C:\Users\HP\Downloads\Anthraquinone_pdb\AD35.pdb
REMARK  11 active torsions:
REMARK  status: ('A' for Active; 'I' for Inactive)
REMARK    1  A    between atoms: O_1  and  C_19
REMARK    2  A    between atoms: O_2  and  C_21
REMARK    3  A    between atoms: O_2  and  C_33
REMARK    4  A    between atoms: O_5  and  C_22
REMARK    5  A    between atoms: O_6  and  C_23
REMARK    6  A    between atoms: O_7  and  C_25
REMARK    7  A    between atoms: O_8  and  C_28
REMARK    8  A    between atoms: C_11  and  C_14
REMARK    9  A    between atoms: C_13  and  C_22
REMARK   10  A    between atoms: C_24  and  C_31
REMARK   11  A    between atoms: C_31  and  C_32
REMARK                            x       y       z     vdW  Elec       q    Type
REMARK                         _______ _______ _______ _____ _____    ______ ____
ROOT
ATOM      3  C   UNL     1      20.062  62.757  28.438  0.00  0.00    +0.129 A 
ATOM      4  C   UNL     1      19.267  63.460  29.343  0.00  0.00    +0.052 A 
ATOM      5  C   UNL     1      18.801  62.834  30.497  0.00  0.00    -0.010 A 
ATOM      9  C   UNL     1      19.128  61.502  30.752  0.00  0.00    +0.006 A 
ATOM     25  C   UNL     1      19.927  60.793  29.846  0.00  0.00    +0.045 A 
ATOM     26  C   UNL     1      20.270  59.383  30.123  0.00  0.00    +0.195 C 
ATOM     27  C   UNL     1      21.115  58.647  29.161  0.00  0.00    +0.037 A 
ATOM     28  C   UNL     1      21.449  57.311  29.413  0.00  0.00    +0.012 A 
ATOM     29  C   UNL     1      22.247  56.609  28.510  0.00  0.00    +0.004 A 
ATOM     30  C   UNL     1      22.712  57.235  27.356  0.00  0.00    +0.046 A 
ATOM     31  C   UNL     1      22.382  58.566  27.100  0.00  0.00    +0.128 A 
ATOM     34  C   UNL     1      21.582  59.275  28.005  0.00  0.00    +0.075 A 
ATOM     35  C   UNL     1      21.239  60.685  27.726  0.00  0.00    +0.202 C 
ATOM     36  O   UNL     1      21.650  61.236  26.713  0.00  0.00    -0.286 OA
ATOM     37  O   UNL     1      19.884  58.788  31.123  0.00  0.00    -0.287 OA
ATOM     38  C   UNL     1      20.395  61.420  28.689  0.00  0.00    +0.075 A 
ENDROOT
BRANCH   9  10
ATOM     10  C   UNL     1      18.602  60.920  31.977  0.00  0.00    +0.067 A 
ATOM     11  C   UNL     1      17.393  60.229  31.952  0.00  0.00    +0.132 A 
ATOM     12  C   UNL     1      16.886  59.670  33.125  0.00  0.00    +0.092 A 
ATOM     13  C   UNL     1      17.591  59.805  34.321  0.00  0.00    +0.134 A 
ATOM     14  C   UNL     1      18.801  60.497  34.344  0.00  0.00    +0.101 A 
ATOM     22  C   UNL     1      19.307  61.056  33.170  0.00  0.00    +0.145 A 
BRANCH  14  15
ATOM     15  C   UNL     1      19.536  60.635  35.597  0.00  0.00    +0.167 C 
ATOM     16  C   UNL     1      19.545  61.967  36.335  0.00  0.00    +0.092 C 
ATOM     17  O   UNL     1      20.165  59.679  36.087  0.00  0.00    -0.292 OA
ENDBRANCH  14  15
BRANCH  13  18
ATOM     18  O   UNL     1      17.078  59.251  35.457  0.00  0.00    -0.506 OA
ATOM     19  H   UNL     1      17.630  58.511  35.757  0.00  0.00    +0.292 HD
ENDBRANCH  13  18
BRANCH  11  20
ATOM     20  O   UNL     1      16.681  60.082  30.797  0.00  0.00    -0.506 OA
ATOM     21  H   UNL     1      17.260  60.115  30.019  0.00  0.00    +0.292 HD
ENDBRANCH  11  20
BRANCH  22  23
ATOM     23  O   UNL     1      20.494  61.733  33.201  0.00  0.00    -0.494 OA
ATOM     24  C   UNL     1      21.682  60.951  33.145  0.00  0.00    +0.277 C 
ENDBRANCH  22  23
ENDBRANCH   9  10
BRANCH   3   1
ATOM      1  O   UNL     1      20.484  63.432  27.330  0.00  0.00    -0.506 OA
ATOM      2  H   UNL     1      21.438  63.291  27.204  0.00  0.00    +0.292 HD
ENDBRANCH   3   1
BRANCH  31  32
ATOM     32  O   UNL     1      22.872  59.116  25.953  0.00  0.00    -0.506 OA
ATOM     33  H   UNL     1      23.761  59.473  26.094  0.00  0.00    +0.292 HD
ENDBRANCH  31  32
BRANCH   5   6
ATOM      6  C   UNL     1      17.949  63.635  31.432  0.00  0.00    +0.191 C 
BRANCH   6   7
ATOM      7  O   UNL     1      18.744  64.645  32.038  0.00  0.00    -0.390 OA
ATOM      8  H   UNL     1      19.603  64.261  32.284  0.00  0.00    +0.210 HD
ENDBRANCH   6   7
ENDBRANCH   5   6
TORSDOF 9
ENDMDL
MODEL 7
REMARK VINA RESULT:    -6.824      2.573      5.618
REMARK INTER + INTRA:         -10.083
REMARK INTER:                  -9.396
REMARK INTRA:                  -0.688
REMARK UNBOUND:                -0.666
REMARK  Name = C:\Users\HP\Downloads\Anthraquinone_pdb\AD35.pdb
REMARK  11 active torsions:
REMARK  status: ('A' for Active; 'I' for Inactive)
REMARK    1  A    between atoms: O_1  and  C_19
REMARK    2  A    between atoms: O_2  and  C_21
REMARK    3  A    between atoms: O_2  and  C_33
REMARK    4  A    between atoms: O_5  and  C_22
REMARK    5  A    between atoms: O_6  and  C_23
REMARK    6  A    between atoms: O_7  and  C_25
REMARK    7  A    between atoms: O_8  and  C_28
REMARK    8  A    between atoms: C_11  and  C_14
REMARK    9  A    between atoms: C_13  and  C_22
REMARK   10  A    between atoms: C_24  and  C_31
REMARK   11  A    between atoms: C_31  and  C_32
REMARK                            x       y       z     vdW  Elec       q    Type
REMARK                         _______ _______ _______ _____ _____    ______ ____
ROOT
ATOM      3  C   UNL     1      22.219  56.465  25.311  0.00  0.00    +0.129 A 
ATOM      4  C   UNL     1      23.183  57.252  25.941  0.00  0.00    +0.052 A 
ATOM      5  C   UNL     1      23.006  57.651  27.264  0.00  0.00    -0.010 A 
ATOM      9  C   UNL     1      21.862  57.265  27.964  0.00  0.00    +0.006 A 
ATOM     25  C   UNL     1      20.892  56.474  27.336  0.00  0.00    +0.045 A 
ATOM     26  C   UNL     1      19.684  56.069  28.084  0.00  0.00    +0.195 C 
ATOM     27  C   UNL     1      18.669  55.234  27.411  0.00  0.00    +0.037 A 
ATOM     28  C   UNL     1      17.522  54.841  28.110  0.00  0.00    +0.012 A 
ATOM     29  C   UNL     1      16.558  54.051  27.482  0.00  0.00    +0.004 A 
ATOM     30  C   UNL     1      16.737  53.652  26.159  0.00  0.00    +0.046 A 
ATOM     31  C   UNL     1      17.879  54.041  25.458  0.00  0.00    +0.128 A 
ATOM     34  C   UNL     1      18.848  54.834  26.086  0.00  0.00    +0.075 A 
ATOM     35  C   UNL     1      20.055  55.239  25.336  0.00  0.00    +0.202 C 
ATOM     36  O   UNL     1      20.213  54.886  24.175  0.00  0.00    -0.286 OA
ATOM     37  O   UNL     1      19.481  56.396  29.248  0.00  0.00    -0.287 OA
ATOM     38  C   UNL     1      21.070  56.074  26.010  0.00  0.00    +0.075 A 
ENDROOT
BRANCH   9  10
ATOM     10  C   UNL     1      21.750  57.724  29.340  0.00  0.00    +0.067 A 
ATOM     11  C   UNL     1      22.381  57.015  30.359  0.00  0.00    +0.132 A 
ATOM     12  C   UNL     1      22.276  57.452  31.680  0.00  0.00    +0.092 A 
ATOM     13  C   UNL     1      21.537  58.597  31.977  0.00  0.00    +0.134 A 
ATOM     14  C   UNL     1      20.904  59.305  30.955  0.00  0.00    +0.101 A 
ATOM     22  C   UNL     1      21.010  58.867  29.635  0.00  0.00    +0.145 A 
BRANCH  14  15
ATOM     15  C   UNL     1      20.132  60.502  31.270  0.00  0.00    +0.167 C 
ATOM     16  C   UNL     1      18.611  60.446  31.296  0.00  0.00    +0.092 C 
ATOM     17  O   UNL     1      20.693  61.586  31.521  0.00  0.00    -0.292 OA
ENDBRANCH  14  15
BRANCH  13  18
ATOM     18  O   UNL     1      21.446  59.007  33.274  0.00  0.00    -0.506 OA
ATOM     19  H   UNL     1      21.829  59.892  33.382  0.00  0.00    +0.292 HD
ENDBRANCH  13  18
BRANCH  11  20
ATOM     20  O   UNL     1      23.111  55.892  30.099  0.00  0.00    -0.506 OA
ATOM     21  H   UNL     1      22.934  55.556  29.207  0.00  0.00    +0.292 HD
ENDBRANCH  11  20
BRANCH  22  23
ATOM     23  O   UNL     1      20.388  59.566  28.639  0.00  0.00    -0.494 OA
ATOM     24  C   UNL     1      21.083  60.691  28.111  0.00  0.00    +0.277 C 
ENDBRANCH  22  23
ENDBRANCH   9  10
BRANCH   3   1
ATOM      1  O   UNL     1      22.458  56.110  24.016  0.00  0.00    -0.506 OA
ATOM      2  H   UNL     1      22.105  55.219  23.850  0.00  0.00    +0.292 HD
ENDBRANCH   3   1
BRANCH  31  32
ATOM     32  O   UNL     1      17.988  53.615  24.168  0.00  0.00    -0.506 OA
ATOM     33  H   UNL     1      18.894  53.728  23.843  0.00  0.00    +0.292 HD
ENDBRANCH  31  32
BRANCH   5   6
ATOM      6  C   UNL     1      24.071  58.497  27.889  0.00  0.00    +0.191 C 
BRANCH   6   7
ATOM      7  O   UNL     1      25.157  57.667  28.280  0.00  0.00    -0.390 OA
ATOM      8  H   UNL     1      25.029  57.402  29.206  0.00  0.00    +0.210 HD
ENDBRANCH   6   7
ENDBRANCH   5   6
TORSDOF 9
ENDMDL
MODEL 8
REMARK VINA RESULT:    -6.613     19.382     22.363
REMARK INTER + INTRA:          -9.792
REMARK INTER:                  -9.041
REMARK INTRA:                  -0.751
REMARK UNBOUND:                -0.666
REMARK  Name = C:\Users\HP\Downloads\Anthraquinone_pdb\AD35.pdb
REMARK  11 active torsions:
REMARK  status: ('A' for Active; 'I' for Inactive)
REMARK    1  A    between atoms: O_1  and  C_19
REMARK    2  A    between atoms: O_2  and  C_21
REMARK    3  A    between atoms: O_2  and  C_33
REMARK    4  A    between atoms: O_5  and  C_22
REMARK    5  A    between atoms: O_6  and  C_23
REMARK    6  A    between atoms: O_7  and  C_25
REMARK    7  A    between atoms: O_8  and  C_28
REMARK    8  A    between atoms: C_11  and  C_14
REMARK    9  A    between atoms: C_13  and  C_22
REMARK   10  A    between atoms: C_24  and  C_31
REMARK   11  A    between atoms: C_31  and  C_32
REMARK                            x       y       z     vdW  Elec       q    Type
REMARK                         _______ _______ _______ _____ _____    ______ ____
ROOT
ATOM      3  C   UNL     1      24.827  48.401   8.985  0.00  0.00    +0.129 A 
ATOM      4  C   UNL     1      23.507  48.737   9.285  0.00  0.00    +0.052 A 
ATOM      5  C   UNL     1      22.742  49.453   8.367  0.00  0.00    -0.010 A 
ATOM      9  C   UNL     1      23.294  49.837   7.144  0.00  0.00    +0.006 A 
ATOM     25  C   UNL     1      24.618  49.500   6.839  0.00  0.00    +0.045 A 
ATOM     26  C   UNL     1      25.195  49.910   5.541  0.00  0.00    +0.195 C 
ATOM     27  C   UNL     1      26.593  49.547   5.231  0.00  0.00    +0.037 A 
ATOM     28  C   UNL     1      27.150  49.927   4.004  0.00  0.00    +0.012 A 
ATOM     29  C   UNL     1      28.469  49.588   3.703  0.00  0.00    +0.004 A 
ATOM     30  C   UNL     1      29.234  48.872   4.621  0.00  0.00    +0.046 A 
ATOM     31  C   UNL     1      28.683  48.492   5.845  0.00  0.00    +0.128 A 
ATOM     34  C   UNL     1      27.359  48.830   6.151  0.00  0.00    +0.075 A 
ATOM     35  C   UNL     1      26.784  48.421   7.449  0.00  0.00    +0.202 C 
ATOM     36  O   UNL     1      27.454  47.790   8.255  0.00  0.00    -0.286 OA
ATOM     37  O   UNL     1      24.564  50.541   4.702  0.00  0.00    -0.287 OA
ATOM     38  C   UNL     1      25.385  48.782   7.759  0.00  0.00    +0.075 A 
ENDROOT
BRANCH   9  10
ATOM     10  C   UNL     1      22.431  50.583   6.240  0.00  0.00    +0.067 A 
ATOM     11  C   UNL     1      22.540  51.969   6.167  0.00  0.00    +0.132 A 
ATOM     12  C   UNL     1      21.714  52.687   5.301  0.00  0.00    +0.092 A 
ATOM     13  C   UNL     1      20.781  52.015   4.512  0.00  0.00    +0.134 A 
ATOM     14  C   UNL     1      20.673  50.626   4.588  0.00  0.00    +0.101 A 
ATOM     22  C   UNL     1      21.499  49.910   5.454  0.00  0.00    +0.145 A 
BRANCH  14  15
ATOM     15  C   UNL     1      19.695  49.927   3.761  0.00  0.00    +0.167 C 
ATOM     16  C   UNL     1      18.367  49.482   4.359  0.00  0.00    +0.092 C 
ATOM     17  O   UNL     1      19.922  49.681   2.561  0.00  0.00    -0.292 OA
ENDBRANCH  14  15
BRANCH  13  18
ATOM     18  O   UNL     1      19.983  52.736   3.673  0.00  0.00    -0.506 OA
ATOM     19  H   UNL     1      19.472  53.396   4.169  0.00  0.00    +0.292 HD
ENDBRANCH  13  18
BRANCH  11  20
ATOM     20  O   UNL     1      23.443  52.654   6.926  0.00  0.00    -0.506 OA
ATOM     21  H   UNL     1      23.003  53.296   7.505  0.00  0.00    +0.292 HD
ENDBRANCH  11  20
BRANCH  22  23
ATOM     23  O   UNL     1      21.387  48.549   5.523  0.00  0.00    -0.494 OA
ATOM     24  C   UNL     1      22.193  47.792   4.626  0.00  0.00    +0.277 C 
ENDBRANCH  22  23
ENDBRANCH   9  10
BRANCH   3   1
ATOM      1  O   UNL     1      25.517  47.699   9.929  0.00  0.00    -0.506 OA
ATOM      2  H   UNL     1      25.884  48.311  10.590  0.00  0.00    +0.292 HD
ENDBRANCH   3   1
BRANCH  31  32
ATOM     32  O   UNL     1      29.487  47.793   6.695  0.00  0.00    -0.506 OA
ATOM     33  H   UNL     1      30.349  48.227   6.789  0.00  0.00    +0.292 HD
ENDBRANCH  31  32
BRANCH   5   6
ATOM      6  C   UNL     1      21.332  49.789   8.742  0.00  0.00    +0.191 C 
BRANCH   6   7
ATOM      7  O   UNL     1      20.511  48.645   8.544  0.00  0.00    -0.390 OA
ATOM      8  H   UNL     1      21.011  47.853   8.806  0.00  0.00    +0.210 HD
ENDBRANCH   6   7
ENDBRANCH   5   6
TORSDOF 9
ENDMDL
MODEL 9
REMARK VINA RESULT:    -6.427     20.332     23.253
REMARK INTER + INTRA:          -9.536
REMARK INTER:                  -8.914
REMARK INTRA:                  -0.622
REMARK UNBOUND:                -0.666
REMARK  Name = C:\Users\HP\Downloads\Anthraquinone_pdb\AD35.pdb
REMARK  11 active torsions:
REMARK  status: ('A' for Active; 'I' for Inactive)
REMARK    1  A    between atoms: O_1  and  C_19
REMARK    2  A    between atoms: O_2  and  C_21
REMARK    3  A    between atoms: O_2  and  C_33
REMARK    4  A    between atoms: O_5  and  C_22
REMARK    5  A    between atoms: O_6  and  C_23
REMARK    6  A    between atoms: O_7  and  C_25
REMARK    7  A    between atoms: O_8  and  C_28
REMARK    8  A    between atoms: C_11  and  C_14
REMARK    9  A    between atoms: C_13  and  C_22
REMARK   10  A    between atoms: C_24  and  C_31
REMARK   11  A    between atoms: C_31  and  C_32
REMARK                            x       y       z     vdW  Elec       q    Type
REMARK                         _______ _______ _______ _____ _____    ______ ____
ROOT
ATOM      3  C   UNL     1      21.007  52.354   4.792  0.00  0.00    +0.129 A 
ATOM      4  C   UNL     1      22.025  52.324   5.746  0.00  0.00    +0.052 A 
ATOM      5  C   UNL     1      22.439  51.110   6.289  0.00  0.00    -0.010 A 
ATOM      9  C   UNL     1      21.836  49.919   5.881  0.00  0.00    +0.006 A 
ATOM     25  C   UNL     1      20.815  49.945   4.923  0.00  0.00    +0.045 A 
ATOM     26  C   UNL     1      20.183  48.679   4.496  0.00  0.00    +0.195 C 
ATOM     27  C   UNL     1      19.108  48.720   3.484  0.00  0.00    +0.037 A 
ATOM     28  C   UNL     1      18.503  47.528   3.069  0.00  0.00    +0.012 A 
ATOM     29  C   UNL     1      17.487  47.557   2.113  0.00  0.00    +0.004 A 
ATOM     30  C   UNL     1      17.074  48.772   1.570  0.00  0.00    +0.046 A 
ATOM     31  C   UNL     1      17.674  49.962   1.981  0.00  0.00    +0.128 A 
ATOM     34  C   UNL     1      18.694  49.937   2.940  0.00  0.00    +0.075 A 
ATOM     35  C   UNL     1      19.325  51.203   3.367  0.00  0.00    +0.202 C 
ATOM     36  O   UNL     1      18.964  52.270   2.888  0.00  0.00    -0.286 OA
ATOM     37  O   UNL     1      20.511  47.587   4.945  0.00  0.00    -0.287 OA
ATOM     38  C   UNL     1      20.401  51.162   4.378  0.00  0.00    +0.075 A 
ENDROOT
BRANCH   9  10
ATOM     10  C   UNL     1      22.324  48.694   6.496  0.00  0.00    +0.067 A 
ATOM     11  C   UNL     1      21.658  48.160   7.597  0.00  0.00    +0.132 A 
ATOM     12  C   UNL     1      22.122  46.985   8.188  0.00  0.00    +0.092 A 
ATOM     13  C   UNL     1      23.253  46.348   7.677  0.00  0.00    +0.134 A 
ATOM     14  C   UNL     1      23.919  46.885   6.575  0.00  0.00    +0.101 A 
ATOM     22  C   UNL     1      23.453  48.060   5.984  0.00  0.00    +0.145 A 
BRANCH  14  15
ATOM     15  C   UNL     1      25.101  46.216   6.043  0.00  0.00    +0.167 C 
ATOM     16  C   UNL     1      26.490  46.751   6.361  0.00  0.00    +0.092 C 
ATOM     17  O   UNL     1      25.002  45.203   5.324  0.00  0.00    -0.292 OA
ENDBRANCH  14  15
BRANCH  13  18
ATOM     18  O   UNL     1      23.691  45.201   8.270  0.00  0.00    -0.506 OA
ATOM     19  H   UNL     1      24.151  45.399   9.101  0.00  0.00    +0.292 HD
ENDBRANCH  13  18
BRANCH  11  20
ATOM     20  O   UNL     1      20.550  48.760   8.119  0.00  0.00    -0.506 OA
ATOM     21  H   UNL     1      20.483  48.608   9.074  0.00  0.00    +0.292 HD
ENDBRANCH  11  20
BRANCH  22  23
ATOM     23  O   UNL     1      24.111  48.579   4.905  0.00  0.00    -0.494 OA
ATOM     24  C   UNL     1      23.745  48.076   3.625  0.00  0.00    +0.277 C 
ENDBRANCH  22  23
ENDBRANCH   9  10
BRANCH   3   1
ATOM      1  O   UNL     1      20.654  53.577   4.302  0.00  0.00    -0.506 OA
ATOM      2  H   UNL     1      21.453  54.088   4.089  0.00  0.00    +0.292 HD
ENDBRANCH   3   1
BRANCH  31  32
ATOM     32  O   UNL     1      17.221  51.113   1.408  0.00  0.00    -0.506 OA
ATOM     33  H   UNL     1      16.609  50.919   0.682  0.00  0.00    +0.292 HD
ENDBRANCH  31  32
BRANCH   5   6
ATOM      6  C   UNL     1      23.533  51.137   7.310  0.00  0.00    +0.191 C 
BRANCH   6   7
ATOM      7  O   UNL     1      24.571  51.996   6.859  0.00  0.00    -0.390 OA
ATOM      8  H   UNL     1      24.206  52.605   6.195  0.00  0.00    +0.210 HD
ENDBRANCH   6   7
ENDBRANCH   5   6
TORSDOF 9
ENDMDL
