MODEL 1
REMARK VINA RESULT:    -7.768      0.000      0.000
REMARK INTER + INTRA:         -11.382
REMARK INTER:                 -10.719
REMARK INTRA:                  -0.663
REMARK UNBOUND:                -0.663
REMARK  Name = C:\Users\HP\Downloads\Anthraquinone_pdb\AD36.pdb
REMARK  11 active torsions:
REMARK  status: ('A' for Active; 'I' for Inactive)
REMARK    1  A    between atoms: O_1  and  C_19
REMARK    2  A    between atoms: O_4  and  C_21
REMARK    3  A    between atoms: O_5  and  C_22
REMARK    4  A    between atoms: O_6  and  C_23
REMARK    5  A    between atoms: O_7  and  C_27
REMARK    6  A    between atoms: O_7  and  C_33
REMARK    7  A    between atoms: O_8  and  C_25
REMARK    8  A    between atoms: C_11  and  C_14
REMARK    9  A    between atoms: C_13  and  C_22
REMARK   10  A    between atoms: C_24  and  C_31
REMARK   11  A    between atoms: C_31  and  C_32
REMARK                            x       y       z     vdW  Elec       q    Type
REMARK                         _______ _______ _______ _____ _____    ______ ____
ROOT
ATOM      3  C   UNL     1      20.906  61.199  28.307  0.00  0.00    +0.129 A 
ATOM      4  C   UNL     1      21.577  60.210  27.587  0.00  0.00    +0.052 A 
ATOM      5  C   UNL     1      21.255  58.867  27.776  0.00  0.00    -0.010 A 
ATOM      9  C   UNL     1      20.261  58.509  28.687  0.00  0.00    +0.006 A 
ATOM     25  C   UNL     1      19.585  59.498  29.411  0.00  0.00    +0.045 A 
ATOM     26  C   UNL     1      18.534  59.109  30.373  0.00  0.00    +0.195 C 
ATOM     27  C   UNL     1      17.828  60.163  31.130  0.00  0.00    +0.037 A 
ATOM     28  C   UNL     1      16.830  59.807  32.045  0.00  0.00    +0.012 A 
ATOM     29  C   UNL     1      16.159  60.797  32.764  0.00  0.00    +0.004 A 
ATOM     30  C   UNL     1      16.480  62.138  32.574  0.00  0.00    +0.046 A 
ATOM     31  C   UNL     1      17.476  62.498  31.665  0.00  0.00    +0.128 A 
ATOM     34  C   UNL     1      18.151  61.508  30.941  0.00  0.00    +0.075 A 
ATOM     35  C   UNL     1      19.202  61.897  29.978  0.00  0.00    +0.202 C 
ATOM     36  O   UNL     1      19.485  63.077  29.811  0.00  0.00    -0.286 OA
ATOM     37  O   UNL     1      18.216  57.944  30.576  0.00  0.00    -0.287 OA
ATOM     38  C   UNL     1      19.908  60.843  29.221  0.00  0.00    +0.075 A 
ENDROOT
BRANCH   9  10
ATOM     10  C   UNL     1      19.982  57.087  28.827  0.00  0.00    +0.067 A 
ATOM     11  C   UNL     1      20.807  56.297  29.624  0.00  0.00    +0.132 A 
ATOM     12  C   UNL     1      20.543  54.933  29.760  0.00  0.00    +0.092 A 
ATOM     13  C   UNL     1      19.455  54.365  29.099  0.00  0.00    +0.138 A 
ATOM     14  C   UNL     1      18.630  55.159  28.303  0.00  0.00    +0.101 A 
ATOM     22  C   UNL     1      18.894  56.522  28.166  0.00  0.00    +0.142 A 
BRANCH  14  15
ATOM     15  C   UNL     1      17.491  54.562  27.612  0.00  0.00    +0.167 C 
ATOM     16  C   UNL     1      17.675  53.932  26.238  0.00  0.00    +0.092 C 
ATOM     17  O   UNL     1      16.357  54.551  28.127  0.00  0.00    -0.292 OA
ENDBRANCH  14  15
BRANCH  13  18
ATOM     18  O   UNL     1      19.214  53.031  29.246  0.00  0.00    -0.494 OA
ATOM     19  C   UNL     1      20.325  52.208  29.597  0.00  0.00    +0.277 C 
ENDBRANCH  13  18
BRANCH  11  20
ATOM     20  O   UNL     1      21.879  56.824  30.282  0.00  0.00    -0.506 OA
ATOM     21  H   UNL     1      22.510  57.225  29.663  0.00  0.00    +0.292 HD
ENDBRANCH  11  20
BRANCH  22  23
ATOM     23  O   UNL     1      18.082  57.292  27.384  0.00  0.00    -0.505 OA
ATOM     24  H   UNL     1      18.415  58.201  27.322  0.00  0.00    +0.292 HD
ENDBRANCH  22  23
ENDBRANCH   9  10
BRANCH   3   1
ATOM      1  O   UNL     1      21.272  62.491  28.071  0.00  0.00    -0.506 OA
ATOM      2  H   UNL     1      22.146  62.512  27.644  0.00  0.00    +0.292 HD
ENDBRANCH   3   1
BRANCH  31  32
ATOM     32  O   UNL     1      17.739  63.829  31.529  0.00  0.00    -0.506 OA
ATOM     33  H   UNL     1      18.664  64.020  31.742  0.00  0.00    +0.292 HD
ENDBRANCH  31  32
BRANCH   5   6
ATOM      6  C   UNL     1      22.006  57.849  26.977  0.00  0.00    +0.191 C 
BRANCH   6   7
ATOM      7  O   UNL     1      21.570  57.899  25.627  0.00  0.00    -0.390 OA
ATOM      8  H   UNL     1      22.273  58.335  25.115  0.00  0.00    +0.210 HD
ENDBRANCH   6   7
ENDBRANCH   5   6
TORSDOF 9
ENDMDL
MODEL 2
REMARK VINA RESULT:    -7.451      1.838      7.058
REMARK INTER + INTRA:         -10.946
REMARK INTER:                 -10.066
REMARK INTRA:                  -0.880
REMARK UNBOUND:                -0.663
REMARK  Name = C:\Users\HP\Downloads\Anthraquinone_pdb\AD36.pdb
REMARK  11 active torsions:
REMARK  status: ('A' for Active; 'I' for Inactive)
REMARK    1  A    between atoms: O_1  and  C_19
REMARK    2  A    between atoms: O_4  and  C_21
REMARK    3  A    between atoms: O_5  and  C_22
REMARK    4  A    between atoms: O_6  and  C_23
REMARK    5  A    between atoms: O_7  and  C_27
REMARK    6  A    between atoms: O_7  and  C_33
REMARK    7  A    between atoms: O_8  and  C_25
REMARK    8  A    between atoms: C_11  and  C_14
REMARK    9  A    between atoms: C_13  and  C_22
REMARK   10  A    between atoms: C_24  and  C_31
REMARK   11  A    between atoms: C_31  and  C_32
REMARK                            x       y       z     vdW  Elec       q    Type
REMARK                         _______ _______ _______ _____ _____    ______ ____
ROOT
ATOM      3  C   UNL     1      22.308  56.438  30.914  0.00  0.00    +0.129 A 
ATOM      4  C   UNL     1      22.752  57.686  31.352  0.00  0.00    +0.052 A 
ATOM      5  C   UNL     1      21.964  58.818  31.154  0.00  0.00    -0.010 A 
ATOM      9  C   UNL     1      20.728  58.706  30.515  0.00  0.00    +0.006 A 
ATOM     25  C   UNL     1      20.279  57.455  30.074  0.00  0.00    +0.045 A 
ATOM     26  C   UNL     1      18.970  57.347  29.398  0.00  0.00    +0.195 C 
ATOM     27  C   UNL     1      18.508  56.021  28.937  0.00  0.00    +0.037 A 
ATOM     28  C   UNL     1      17.269  55.905  28.296  0.00  0.00    +0.012 A 
ATOM     29  C   UNL     1      16.826  54.657  27.858  0.00  0.00    +0.004 A 
ATOM     30  C   UNL     1      17.614  53.526  28.058  0.00  0.00    +0.046 A 
ATOM     31  C   UNL     1      18.850  53.637  28.695  0.00  0.00    +0.128 A 
ATOM     34  C   UNL     1      19.298  54.888  29.137  0.00  0.00    +0.075 A 
ATOM     35  C   UNL     1      20.608  54.996  29.812  0.00  0.00    +0.202 C 
ATOM     36  O   UNL     1      21.300  54.002  29.988  0.00  0.00    -0.286 OA
ATOM     37  O   UNL     1      18.242  58.311  29.198  0.00  0.00    -0.287 OA
ATOM     38  C   UNL     1      21.070  56.322  30.273  0.00  0.00    +0.075 A 
ENDROOT
BRANCH   9  10
ATOM     10  C   UNL     1      19.964  59.933  30.345  0.00  0.00    +0.067 A 
ATOM     11  C   UNL     1      20.237  60.774  29.270  0.00  0.00    +0.132 A 
ATOM     12  C   UNL     1      19.507  61.952  29.105  0.00  0.00    +0.092 A 
ATOM     13  C   UNL     1      18.505  62.284  30.016  0.00  0.00    +0.138 A 
ATOM     14  C   UNL     1      18.233  61.439  31.093  0.00  0.00    +0.101 A 
ATOM     22  C   UNL     1      18.964  60.262  31.258  0.00  0.00    +0.142 A 
BRANCH  14  15
ATOM     15  C   UNL     1      17.185  61.789  32.046  0.00  0.00    +0.167 C 
ATOM     16  C   UNL     1      17.486  62.738  33.199  0.00  0.00    +0.092 C 
ATOM     17  O   UNL     1      16.034  61.328  31.938  0.00  0.00    -0.292 OA
ENDBRANCH  14  15
BRANCH  13  18
ATOM     18  O   UNL     1      17.803  63.439  29.837  0.00  0.00    -0.494 OA
ATOM     19  C   UNL     1      18.457  64.655  30.190  0.00  0.00    +0.277 C 
ENDBRANCH  13  18
BRANCH  11  20
ATOM     20  O   UNL     1      21.210  60.476  28.362  0.00  0.00    -0.506 OA
ATOM     21  H   UNL     1      20.902  60.625  27.454  0.00  0.00    +0.292 HD
ENDBRANCH  11  20
BRANCH  22  23
ATOM     23  O   UNL     1      18.692  59.441  32.315  0.00  0.00    -0.505 OA
ATOM     24  H   UNL     1      18.749  58.508  32.056  0.00  0.00    +0.292 HD
ENDBRANCH  22  23
ENDBRANCH   9  10
BRANCH   3   1
ATOM      1  O   UNL     1      23.130  55.375  31.142  0.00  0.00    -0.506 OA
ATOM      2  H   UNL     1      22.601  54.567  31.249  0.00  0.00    +0.292 HD
ENDBRANCH   3   1
BRANCH  31  32
ATOM     32  O   UNL     1      19.568  52.489  28.857  0.00  0.00    -0.506 OA
ATOM     33  H   UNL     1      19.615  52.242  29.793  0.00  0.00    +0.292 HD
ENDBRANCH  31  32
BRANCH   5   6
ATOM      6  C   UNL     1      22.489  60.131  31.644  0.00  0.00    +0.191 C 
BRANCH   6   7
ATOM      7  O   UNL     1      23.337  60.694  30.655  0.00  0.00    -0.390 OA
ATOM      8  H   UNL     1      24.249  60.624  30.985  0.00  0.00    +0.210 HD
ENDBRANCH   6   7
ENDBRANCH   5   6
TORSDOF 9
ENDMDL
MODEL 3
REMARK VINA RESULT:    -7.157      3.539      8.140
REMARK INTER + INTRA:         -10.540
REMARK INTER:                  -9.808
REMARK INTRA:                  -0.732
REMARK UNBOUND:                -0.663
REMARK  Name = C:\Users\HP\Downloads\Anthraquinone_pdb\AD36.pdb
REMARK  11 active torsions:
REMARK  status: ('A' for Active; 'I' for Inactive)
REMARK    1  A    between atoms: O_1  and  C_19
REMARK    2  A    between atoms: O_4  and  C_21
REMARK    3  A    between atoms: O_5  and  C_22
REMARK    4  A    between atoms: O_6  and  C_23
REMARK    5  A    between atoms: O_7  and  C_27
REMARK    6  A    between atoms: O_7  and  C_33
REMARK    7  A    between atoms: O_8  and  C_25
REMARK    8  A    between atoms: C_11  and  C_14
REMARK    9  A    between atoms: C_13  and  C_22
REMARK   10  A    between atoms: C_24  and  C_31
REMARK   11  A    between atoms: C_31  and  C_32
REMARK                            x       y       z     vdW  Elec       q    Type
REMARK                         _______ _______ _______ _____ _____    ______ ____
ROOT
ATOM      3  C   UNL     1      22.148  56.243  23.883  0.00  0.00    +0.129 A 
ATOM      4  C   UNL     1      21.099  55.958  24.758  0.00  0.00    +0.052 A 
ATOM      5  C   UNL     1      21.114  56.463  26.056  0.00  0.00    -0.010 A 
ATOM      9  C   UNL     1      22.178  57.256  26.485  0.00  0.00    +0.006 A 
ATOM     25  C   UNL     1      23.233  57.545  25.610  0.00  0.00    +0.045 A 
ATOM     26  C   UNL     1      24.356  58.385  26.074  0.00  0.00    +0.195 C 
ATOM     27  C   UNL     1      25.462  58.683  25.141  0.00  0.00    +0.037 A 
ATOM     28  C   UNL     1      26.533  59.478  25.568  0.00  0.00    +0.012 A 
ATOM     29  C   UNL     1      27.581  59.763  24.692  0.00  0.00    +0.004 A 
ATOM     30  C   UNL     1      27.565  59.259  23.395  0.00  0.00    +0.046 A 
ATOM     31  C   UNL     1      26.501  58.464  22.965  0.00  0.00    +0.128 A 
ATOM     34  C   UNL     1      25.447  58.176  23.840  0.00  0.00    +0.075 A 
ATOM     35  C   UNL     1      24.324  57.335  23.377  0.00  0.00    +0.202 C 
ATOM     36  O   UNL     1      24.310  56.892  22.235  0.00  0.00    -0.286 OA
ATOM     37  O   UNL     1      24.416  58.851  27.205  0.00  0.00    -0.287 OA
ATOM     38  C   UNL     1      23.218  57.038  24.310  0.00  0.00    +0.075 A 
ENDROOT
BRANCH   9  10
ATOM     10  C   UNL     1      22.121  57.747  27.854  0.00  0.00    +0.067 A 
ATOM     11  C   UNL     1      21.591  59.008  28.115  0.00  0.00    +0.132 A 
ATOM     12  C   UNL     1      21.535  59.482  29.426  0.00  0.00    +0.092 A 
ATOM     13  C   UNL     1      22.009  58.692  30.473  0.00  0.00    +0.138 A 
ATOM     14  C   UNL     1      22.539  57.429  30.209  0.00  0.00    +0.101 A 
ATOM     22  C   UNL     1      22.595  56.956  28.898  0.00  0.00    +0.142 A 
BRANCH  14  15
ATOM     15  C   UNL     1      23.034  56.604  31.306  0.00  0.00    +0.167 C 
ATOM     16  C   UNL     1      22.071  55.736  32.105  0.00  0.00    +0.092 C 
ATOM     17  O   UNL     1      24.241  56.590  31.609  0.00  0.00    -0.292 OA
ENDBRANCH  14  15
BRANCH  13  18
ATOM     18  O   UNL     1      21.944  59.174  31.747  0.00  0.00    -0.494 OA
ATOM     19  C   UNL     1      21.967  60.591  31.905  0.00  0.00    +0.277 C 
ENDBRANCH  13  18
BRANCH  11  20
ATOM     20  O   UNL     1      21.120  59.804  27.112  0.00  0.00    -0.506 OA
ATOM     21  H   UNL     1      21.270  59.401  26.242  0.00  0.00    +0.292 HD
ENDBRANCH  11  20
BRANCH  22  23
ATOM     23  O   UNL     1      23.115  55.718  28.649  0.00  0.00    -0.505 OA
ATOM     24  H   UNL     1      22.514  55.019  28.949  0.00  0.00    +0.292 HD
ENDBRANCH  22  23
ENDBRANCH   9  10
BRANCH   3   1
ATOM      1  O   UNL     1      22.067  55.715  22.628  0.00  0.00    -0.506 OA
ATOM      2  H   UNL     1      21.500  54.926  22.640  0.00  0.00    +0.292 HD
ENDBRANCH   3   1
BRANCH  31  32
ATOM     32  O   UNL     1      26.551  58.004  21.683  0.00  0.00    -0.506 OA
ATOM     33  H   UNL     1      25.658  57.854  21.336  0.00  0.00    +0.292 HD
ENDBRANCH  31  32
BRANCH   5   6
ATOM      6  C   UNL     1      19.963  56.126  26.951  0.00  0.00    +0.191 C 
BRANCH   6   7
ATOM      7  O   UNL     1      18.746  56.400  26.272  0.00  0.00    -0.390 OA
ATOM      8  H   UNL     1      18.021  56.145  26.867  0.00  0.00    +0.210 HD
ENDBRANCH   6   7
ENDBRANCH   5   6
TORSDOF 9
ENDMDL
MODEL 4
REMARK VINA RESULT:    -7.050     23.856     27.294
REMARK INTER + INTRA:         -10.392
REMARK INTER:                  -9.645
REMARK INTRA:                  -0.747
REMARK UNBOUND:                -0.663
REMARK  Name = C:\Users\HP\Downloads\Anthraquinone_pdb\AD36.pdb
REMARK  11 active torsions:
REMARK  status: ('A' for Active; 'I' for Inactive)
REMARK    1  A    between atoms: O_1  and  C_19
REMARK    2  A    between atoms: O_4  and  C_21
REMARK    3  A    between atoms: O_5  and  C_22
REMARK    4  A    between atoms: O_6  and  C_23
REMARK    5  A    between atoms: O_7  and  C_27
REMARK    6  A    between atoms: O_7  and  C_33
REMARK    7  A    between atoms: O_8  and  C_25
REMARK    8  A    between atoms: C_11  and  C_14
REMARK    9  A    between atoms: C_13  and  C_22
REMARK   10  A    between atoms: C_24  and  C_31
REMARK   11  A    between atoms: C_31  and  C_32
REMARK                            x       y       z     vdW  Elec       q    Type
REMARK                         _______ _______ _______ _____ _____    ______ ____
ROOT
ATOM      3  C   UNL     1       9.721  53.166   4.290  0.00  0.00    +0.129 A 
ATOM      4  C   UNL     1       8.561  53.346   5.045  0.00  0.00    +0.052 A 
ATOM      5  C   UNL     1       8.038  52.289   5.788  0.00  0.00    -0.010 A 
ATOM      9  C   UNL     1       8.673  51.047   5.778  0.00  0.00    +0.006 A 
ATOM     25  C   UNL     1       9.837  50.862   5.022  0.00  0.00    +0.045 A 
ATOM     26  C   UNL     1      10.503  49.543   5.018  0.00  0.00    +0.195 C 
ATOM     27  C   UNL     1      11.730  49.362   4.216  0.00  0.00    +0.037 A 
ATOM     28  C   UNL     1      12.370  48.116   4.204  0.00  0.00    +0.012 A 
ATOM     29  C   UNL     1      13.530  47.937   3.449  0.00  0.00    +0.004 A 
ATOM     30  C   UNL     1      14.053  48.994   2.708  0.00  0.00    +0.046 A 
ATOM     31  C   UNL     1      13.417  50.236   2.716  0.00  0.00    +0.128 A 
ATOM     34  C   UNL     1      12.253  50.421   3.472  0.00  0.00    +0.075 A 
ATOM     35  C   UNL     1      11.588  51.740   3.477  0.00  0.00    +0.202 C 
ATOM     36  O   UNL     1      12.048  52.669   2.825  0.00  0.00    -0.286 OA
ATOM     37  O   UNL     1      10.082  48.583   5.651  0.00  0.00    -0.287 OA
ATOM     38  C   UNL     1      10.360  51.922   4.278  0.00  0.00    +0.075 A 
ENDROOT
BRANCH   9  10
ATOM     10  C   UNL     1       8.067  49.994   6.579  0.00  0.00    +0.067 A 
ATOM     11  C   UNL     1       7.237  49.055   5.972  0.00  0.00    +0.132 A 
ATOM     12  C   UNL     1       6.653  48.045   6.737  0.00  0.00    +0.092 A 
ATOM     13  C   UNL     1       6.902  47.977   8.107  0.00  0.00    +0.138 A 
ATOM     14  C   UNL     1       7.734  48.918   8.713  0.00  0.00    +0.101 A 
ATOM     22  C   UNL     1       8.318  49.929   7.948  0.00  0.00    +0.142 A 
BRANCH  14  15
ATOM     15  C   UNL     1       7.993  48.845  10.147  0.00  0.00    +0.167 C 
ATOM     16  C   UNL     1       9.286  48.223  10.660  0.00  0.00    +0.092 C 
ATOM     17  O   UNL     1       7.174  49.286  10.975  0.00  0.00    -0.292 OA
ENDBRANCH  14  15
BRANCH  13  18
ATOM     18  O   UNL     1       6.322  46.981   8.837  0.00  0.00    -0.494 OA
ATOM     19  C   UNL     1       4.917  47.076   9.059  0.00  0.00    +0.277 C 
ENDBRANCH  13  18
BRANCH  11  20
ATOM     20  O   UNL     1       6.974  49.096   4.634  0.00  0.00    -0.506 OA
ATOM     21  H   UNL     1       6.545  48.279   4.334  0.00  0.00    +0.292 HD
ENDBRANCH  11  20
BRANCH  22  23
ATOM     23  O   UNL     1       9.131  50.846   8.548  0.00  0.00    -0.505 OA
ATOM     24  H   UNL     1       8.924  51.746   8.250  0.00  0.00    +0.292 HD
ENDBRANCH  22  23
ENDBRANCH   9  10
BRANCH   3   1
ATOM      1  O   UNL     1      10.175  54.243   3.589  0.00  0.00    -0.506 OA
ATOM      2  H   UNL     1      11.121  54.378   3.770  0.00  0.00    +0.292 HD
ENDBRANCH   3   1
BRANCH  31  32
ATOM     32  O   UNL     1      13.983  51.226   1.968  0.00  0.00    -0.506 OA
ATOM     33  H   UNL     1      14.567  50.854   1.290  0.00  0.00    +0.292 HD
ENDBRANCH  31  32
BRANCH   5   6
ATOM      6  C   UNL     1       6.793  52.539   6.579  0.00  0.00    +0.191 C 
BRANCH   6   7
ATOM      7  O   UNL     1       7.131  53.211   7.783  0.00  0.00    -0.390 OA
ATOM      8  H   UNL     1       7.350  54.129   7.547  0.00  0.00    +0.210 HD
ENDBRANCH   6   7
ENDBRANCH   5   6
TORSDOF 9
ENDMDL
MODEL 5
REMARK VINA RESULT:    -6.994      3.385      6.178
REMARK INTER + INTRA:         -10.314
REMARK INTER:                  -9.493
REMARK INTRA:                  -0.822
REMARK UNBOUND:                -0.663
REMARK  Name = C:\Users\HP\Downloads\Anthraquinone_pdb\AD36.pdb
REMARK  11 active torsions:
REMARK  status: ('A' for Active; 'I' for Inactive)
REMARK    1  A    between atoms: O_1  and  C_19
REMARK    2  A    between atoms: O_4  and  C_21
REMARK    3  A    between atoms: O_5  and  C_22
REMARK    4  A    between atoms: O_6  and  C_23
REMARK    5  A    between atoms: O_7  and  C_27
REMARK    6  A    between atoms: O_7  and  C_33
REMARK    7  A    between atoms: O_8  and  C_25
REMARK    8  A    between atoms: C_11  and  C_14
REMARK    9  A    between atoms: C_13  and  C_22
REMARK   10  A    between atoms: C_24  and  C_31
REMARK   11  A    between atoms: C_31  and  C_32
REMARK                            x       y       z     vdW  Elec       q    Type
REMARK                         _______ _______ _______ _____ _____    ______ ____
ROOT
ATOM      3  C   UNL     1      24.458  57.392  29.596  0.00  0.00    +0.129 A 
ATOM      4  C   UNL     1      23.720  56.733  30.581  0.00  0.00    +0.052 A 
ATOM      5  C   UNL     1      22.432  56.280  30.304  0.00  0.00    -0.010 A 
ATOM      9  C   UNL     1      21.876  56.483  29.040  0.00  0.00    +0.006 A 
ATOM     25  C   UNL     1      22.613  57.144  28.050  0.00  0.00    +0.045 A 
ATOM     26  C   UNL     1      22.016  57.355  26.715  0.00  0.00    +0.195 C 
ATOM     27  C   UNL     1      22.804  58.053  25.679  0.00  0.00    +0.037 A 
ATOM     28  C   UNL     1      22.249  58.259  24.409  0.00  0.00    +0.012 A 
ATOM     29  C   UNL     1      22.988  58.918  23.426  0.00  0.00    +0.004 A 
ATOM     30  C   UNL     1      24.275  59.370  23.703  0.00  0.00    +0.046 A 
ATOM     31  C   UNL     1      24.831  59.168  24.966  0.00  0.00    +0.128 A 
ATOM     34  C   UNL     1      24.094  58.508  25.957  0.00  0.00    +0.075 A 
ATOM     35  C   UNL     1      24.692  58.296  27.291  0.00  0.00    +0.202 C 
ATOM     36  O   UNL     1      25.824  58.694  27.535  0.00  0.00    -0.286 OA
ATOM     37  O   UNL     1      20.888  56.977  26.423  0.00  0.00    -0.287 OA
ATOM     38  C   UNL     1      23.903  57.598  28.328  0.00  0.00    +0.075 A 
ENDROOT
BRANCH   9  10
ATOM     10  C   UNL     1      20.527  55.980  28.828  0.00  0.00    +0.067 A 
ATOM     11  C   UNL     1      20.337  54.662  28.419  0.00  0.00    +0.132 A 
ATOM     12  C   UNL     1      19.046  54.177  28.214  0.00  0.00    +0.092 A 
ATOM     13  C   UNL     1      17.947  55.011  28.420  0.00  0.00    +0.138 A 
ATOM     14  C   UNL     1      18.140  56.330  28.831  0.00  0.00    +0.101 A 
ATOM     22  C   UNL     1      19.432  56.816  29.035  0.00  0.00    +0.142 A 
BRANCH  14  15
ATOM     15  C   UNL     1      16.989  57.201  29.045  0.00  0.00    +0.167 C 
ATOM     16  C   UNL     1      16.067  57.549  27.884  0.00  0.00    +0.092 C 
ATOM     17  O   UNL     1      16.735  57.671  30.170  0.00  0.00    -0.292 OA
ENDBRANCH  14  15
BRANCH  13  18
ATOM     18  O   UNL     1      16.693  54.516  28.215  0.00  0.00    -0.494 OA
ATOM     19  C   UNL     1      16.460  53.834  26.985  0.00  0.00    +0.277 C 
ENDBRANCH  13  18
BRANCH  11  20
ATOM     20  O   UNL     1      21.392  53.823  28.209  0.00  0.00    -0.506 OA
ATOM     21  H   UNL     1      22.217  54.317  28.085  0.00  0.00    +0.292 HD
ENDBRANCH  11  20
BRANCH  22  23
ATOM     23  O   UNL     1      19.612  58.108  29.436  0.00  0.00    -0.505 OA
ATOM     24  H   UNL     1      19.090  58.719  28.893  0.00  0.00    +0.292 HD
ENDBRANCH  22  23
ENDBRANCH   9  10
BRANCH   3   1
ATOM      1  O   UNL     1      25.711  57.808  29.937  0.00  0.00    -0.506 OA
ATOM      2  H   UNL     1      25.720  58.095  30.866  0.00  0.00    +0.292 HD
ENDBRANCH   3   1
BRANCH  31  32
ATOM     32  O   UNL     1      26.096  59.637  25.169  0.00  0.00    -0.506 OA
ATOM     33  H   UNL     1      26.140  60.590  25.003  0.00  0.00    +0.292 HD
ENDBRANCH  31  32
BRANCH   5   6
ATOM      6  C   UNL     1      21.687  55.579  31.396  0.00  0.00    +0.191 C 
BRANCH   6   7
ATOM      7  O   UNL     1      22.009  54.197  31.370  0.00  0.00    -0.390 OA
ATOM      8  H   UNL     1      22.929  54.110  31.675  0.00  0.00    +0.210 HD
ENDBRANCH   6   7
ENDBRANCH   5   6
TORSDOF 9
ENDMDL
MODEL 6
REMARK VINA RESULT:    -6.956      2.111      6.528
REMARK INTER + INTRA:         -10.262
REMARK INTER:                  -9.601
REMARK INTRA:                  -0.661
REMARK UNBOUND:                -0.663
REMARK  Name = C:\Users\HP\Downloads\Anthraquinone_pdb\AD36.pdb
REMARK  11 active torsions:
REMARK  status: ('A' for Active; 'I' for Inactive)
REMARK    1  A    between atoms: O_1  and  C_19
REMARK    2  A    between atoms: O_4  and  C_21
REMARK    3  A    between atoms: O_5  and  C_22
REMARK    4  A    between atoms: O_6  and  C_23
REMARK    5  A    between atoms: O_7  and  C_27
REMARK    6  A    between atoms: O_7  and  C_33
REMARK    7  A    between atoms: O_8  and  C_25
REMARK    8  A    between atoms: C_11  and  C_14
REMARK    9  A    between atoms: C_13  and  C_22
REMARK   10  A    between atoms: C_24  and  C_31
REMARK   11  A    between atoms: C_31  and  C_32
REMARK                            x       y       z     vdW  Elec       q    Type
REMARK                         _______ _______ _______ _____ _____    ______ ____
ROOT
ATOM      3  C   UNL     1      22.472  57.441  26.005  0.00  0.00    +0.129 A 
ATOM      4  C   UNL     1      23.127  58.469  26.686  0.00  0.00    +0.052 A 
ATOM      5  C   UNL     1      22.573  59.002  27.848  0.00  0.00    -0.010 A 
ATOM      9  C   UNL     1      21.362  58.510  28.334  0.00  0.00    +0.006 A 
ATOM     25  C   UNL     1      20.701  57.479  27.654  0.00  0.00    +0.045 A 
ATOM     26  C   UNL     1      19.419  56.965  28.177  0.00  0.00    +0.195 C 
ATOM     27  C   UNL     1      18.732  55.877  27.450  0.00  0.00    +0.037 A 
ATOM     28  C   UNL     1      17.516  55.381  27.935  0.00  0.00    +0.012 A 
ATOM     29  C   UNL     1      16.862  54.354  27.254  0.00  0.00    +0.004 A 
ATOM     30  C   UNL     1      17.416  53.821  26.093  0.00  0.00    +0.046 A 
ATOM     31  C   UNL     1      18.627  54.313  25.605  0.00  0.00    +0.128 A 
ATOM     34  C   UNL     1      19.287  55.344  26.285  0.00  0.00    +0.075 A 
ATOM     35  C   UNL     1      20.570  55.858  25.763  0.00  0.00    +0.202 C 
ATOM     36  O   UNL     1      21.057  55.389  24.742  0.00  0.00    -0.286 OA
ATOM     37  O   UNL     1      18.891  57.401  29.192  0.00  0.00    -0.287 OA
ATOM     38  C   UNL     1      21.256  56.945  26.490  0.00  0.00    +0.075 A 
ENDROOT
BRANCH   9  10
ATOM     10  C   UNL     1      20.849  59.118  29.553  0.00  0.00    +0.067 A 
ATOM     11  C   UNL     1      21.198  58.584  30.791  0.00  0.00    +0.132 A 
ATOM     12  C   UNL     1      20.707  59.163  31.962  0.00  0.00    +0.092 A 
ATOM     13  C   UNL     1      19.870  60.276  31.890  0.00  0.00    +0.138 A 
ATOM     14  C   UNL     1      19.522  60.809  30.649  0.00  0.00    +0.101 A 
ATOM     22  C   UNL     1      20.013  60.229  29.478  0.00  0.00    +0.142 A 
BRANCH  14  15
ATOM     15  C   UNL     1      18.646  61.974  30.576  0.00  0.00    +0.167 C 
ATOM     16  C   UNL     1      19.213  63.334  30.192  0.00  0.00    +0.092 C 
ATOM     17  O   UNL     1      17.429  61.882  30.822  0.00  0.00    -0.292 OA
ENDBRANCH  14  15
BRANCH  13  18
ATOM     18  O   UNL     1      19.402  60.828  33.046  0.00  0.00    -0.494 OA
ATOM     19  C   UNL     1      18.595  59.998  33.878  0.00  0.00    +0.277 C 
ENDBRANCH  13  18
BRANCH  11  20
ATOM     20  O   UNL     1      22.014  57.496  30.893  0.00  0.00    -0.506 OA
ATOM     21  H   UNL     1      22.559  57.538  31.695  0.00  0.00    +0.292 HD
ENDBRANCH  11  20
BRANCH  22  23
ATOM     23  O   UNL     1      19.668  60.757  28.267  0.00  0.00    -0.505 OA
ATOM     24  H   UNL     1      19.097  61.534  28.374  0.00  0.00    +0.292 HD
ENDBRANCH  22  23
ENDBRANCH   9  10
BRANCH   3   1
ATOM      1  O   UNL     1      23.071  56.968  24.876  0.00  0.00    -0.506 OA
ATOM      2  H   UNL     1      23.148  57.682  24.220  0.00  0.00    +0.292 HD
ENDBRANCH   3   1
BRANCH  31  32
ATOM     32  O   UNL     1      19.112  53.745  24.464  0.00  0.00    -0.506 OA
ATOM     33  H   UNL     1      19.925  53.251  24.644  0.00  0.00    +0.292 HD
ENDBRANCH  31  32
BRANCH   5   6
ATOM      6  C   UNL     1      23.319  60.101  28.537  0.00  0.00    +0.191 C 
BRANCH   6   7
ATOM      7  O   UNL     1      22.879  61.353  28.031  0.00  0.00    -0.390 OA
ATOM      8  H   UNL     1      22.271  61.167  27.295  0.00  0.00    +0.210 HD
ENDBRANCH   6   7
ENDBRANCH   5   6
TORSDOF 9
ENDMDL
MODEL 7
REMARK VINA RESULT:    -6.843     23.564     26.519
REMARK INTER + INTRA:         -10.106
REMARK INTER:                  -9.209
REMARK INTRA:                  -0.897
REMARK UNBOUND:                -0.663
REMARK  Name = C:\Users\HP\Downloads\Anthraquinone_pdb\AD36.pdb
REMARK  11 active torsions:
REMARK  status: ('A' for Active; 'I' for Inactive)
REMARK    1  A    between atoms: O_1  and  C_19
REMARK    2  A    between atoms: O_4  and  C_21
REMARK    3  A    between atoms: O_5  and  C_22
REMARK    4  A    between atoms: O_6  and  C_23
REMARK    5  A    between atoms: O_7  and  C_27
REMARK    6  A    between atoms: O_7  and  C_33
REMARK    7  A    between atoms: O_8  and  C_25
REMARK    8  A    between atoms: C_11  and  C_14
REMARK    9  A    between atoms: C_13  and  C_22
REMARK   10  A    between atoms: C_24  and  C_31
REMARK   11  A    between atoms: C_31  and  C_32
REMARK                            x       y       z     vdW  Elec       q    Type
REMARK                         _______ _______ _______ _____ _____    ______ ____
ROOT
ATOM      3  C   UNL     1      20.652  52.284   4.671  0.00  0.00    +0.129 A 
ATOM      4  C   UNL     1      21.654  52.302   5.642  0.00  0.00    +0.052 A 
ATOM      5  C   UNL     1      22.145  51.107   6.163  0.00  0.00    -0.010 A 
ATOM      9  C   UNL     1      21.637  49.888   5.715  0.00  0.00    +0.006 A 
ATOM     25  C   UNL     1      20.632  49.864   4.740  0.00  0.00    +0.045 A 
ATOM     26  C   UNL     1      20.099  48.568   4.273  0.00  0.00    +0.195 C 
ATOM     27  C   UNL     1      19.039  48.558   3.244  0.00  0.00    +0.037 A 
ATOM     28  C   UNL     1      18.526  47.335   2.792  0.00  0.00    +0.012 A 
ATOM     29  C   UNL     1      17.525  47.318   1.821  0.00  0.00    +0.004 A 
ATOM     30  C   UNL     1      17.034  48.512   1.299  0.00  0.00    +0.046 A 
ATOM     31  C   UNL     1      17.541  49.732   1.748  0.00  0.00    +0.128 A 
ATOM     34  C   UNL     1      18.547  49.755   2.722  0.00  0.00    +0.075 A 
ATOM     35  C   UNL     1      19.079  51.052   3.190  0.00  0.00    +0.202 C 
ATOM     36  O   UNL     1      18.647  52.102   2.732  0.00  0.00    -0.286 OA
ATOM     37  O   UNL     1      20.497  47.492   4.700  0.00  0.00    -0.287 OA
ATOM     38  C   UNL     1      20.139  51.062   4.219  0.00  0.00    +0.075 A 
ENDROOT
BRANCH   9  10
ATOM     10  C   UNL     1      22.202  48.684   6.307  0.00  0.00    +0.067 A 
ATOM     11  C   UNL     1      21.655  48.167   7.478  0.00  0.00    +0.132 A 
ATOM     12  C   UNL     1      22.196  47.015   8.049  0.00  0.00    +0.092 A 
ATOM     13  C   UNL     1      23.281  46.381   7.445  0.00  0.00    +0.138 A 
ATOM     14  C   UNL     1      23.827  46.901   6.271  0.00  0.00    +0.101 A 
ATOM     22  C   UNL     1      23.287  48.054   5.701  0.00  0.00    +0.142 A 
BRANCH  14  15
ATOM     15  C   UNL     1      24.963  46.237   5.641  0.00  0.00    +0.167 C 
ATOM     16  C   UNL     1      24.742  45.014   4.759  0.00  0.00    +0.092 C 
ATOM     17  O   UNL     1      26.126  46.650   5.805  0.00  0.00    -0.292 OA
ENDBRANCH  14  15
BRANCH  13  18
ATOM     18  O   UNL     1      23.794  45.255   8.018  0.00  0.00    -0.494 OA
ATOM     19  C   UNL     1      24.630  45.434   9.158  0.00  0.00    +0.277 C 
ENDBRANCH  13  18
BRANCH  11  20
ATOM     20  O   UNL     1      20.594  48.764   8.092  0.00  0.00    -0.506 OA
ATOM     21  H   UNL     1      19.962  49.113   7.444  0.00  0.00    +0.292 HD
ENDBRANCH  11  20
BRANCH  22  23
ATOM     23  O   UNL     1      23.827  48.556   4.552  0.00  0.00    -0.505 OA
ATOM     24  H   UNL     1      24.124  47.843   3.964  0.00  0.00    +0.292 HD
ENDBRANCH  22  23
ENDBRANCH   9  10
BRANCH   3   1
ATOM      1  O   UNL     1      20.219  53.490   4.206  0.00  0.00    -0.506 OA
ATOM      2  H   UNL     1      19.295  53.633   4.475  0.00  0.00    +0.292 HD
ENDBRANCH   3   1
BRANCH  31  32
ATOM     32  O   UNL     1      17.015  50.862   1.195  0.00  0.00    -0.506 OA
ATOM     33  H   UNL     1      16.065  50.922   1.372  0.00  0.00    +0.292 HD
ENDBRANCH  31  32
BRANCH   5   6
ATOM      6  C   UNL     1      23.220  51.187   7.202  0.00  0.00    +0.191 C 
BRANCH   6   7
ATOM      7  O   UNL     1      22.622  51.242   8.489  0.00  0.00    -0.390 OA
ATOM      8  H   UNL     1      22.662  50.345   8.862  0.00  0.00    +0.210 HD
ENDBRANCH   6   7
ENDBRANCH   5   6
TORSDOF 9
ENDMDL
MODEL 8
REMARK VINA RESULT:    -6.815     22.833     26.087
REMARK INTER + INTRA:         -10.067
REMARK INTER:                  -9.202
REMARK INTRA:                  -0.865
REMARK UNBOUND:                -0.663
REMARK  Name = C:\Users\HP\Downloads\Anthraquinone_pdb\AD36.pdb
REMARK  11 active torsions:
REMARK  status: ('A' for Active; 'I' for Inactive)
REMARK    1  A    between atoms: O_1  and  C_19
REMARK    2  A    between atoms: O_4  and  C_21
REMARK    3  A    between atoms: O_5  and  C_22
REMARK    4  A    between atoms: O_6  and  C_23
REMARK    5  A    between atoms: O_7  and  C_27
REMARK    6  A    between atoms: O_7  and  C_33
REMARK    7  A    between atoms: O_8  and  C_25
REMARK    8  A    between atoms: C_11  and  C_14
REMARK    9  A    between atoms: C_13  and  C_22
REMARK   10  A    between atoms: C_24  and  C_31
REMARK   11  A    between atoms: C_31  and  C_32
REMARK                            x       y       z     vdW  Elec       q    Type
REMARK                         _______ _______ _______ _____ _____    ______ ____
ROOT
ATOM      3  C   UNL     1      24.498  48.673   8.941  0.00  0.00    +0.129 A 
ATOM      4  C   UNL     1      23.164  48.978   9.217  0.00  0.00    +0.052 A 
ATOM      5  C   UNL     1      22.376  49.604   8.253  0.00  0.00    -0.010 A 
ATOM      9  C   UNL     1      22.919  49.930   7.010  0.00  0.00    +0.006 A 
ATOM     25  C   UNL     1      24.257  49.626   6.729  0.00  0.00    +0.045 A 
ATOM     26  C   UNL     1      24.823  49.975   5.410  0.00  0.00    +0.195 C 
ATOM     27  C   UNL     1      26.236  49.649   5.127  0.00  0.00    +0.037 A 
ATOM     28  C   UNL     1      26.784  49.974   3.880  0.00  0.00    +0.012 A 
ATOM     29  C   UNL     1      28.118  49.669   3.606  0.00  0.00    +0.004 A 
ATOM     30  C   UNL     1      28.905  49.042   4.568  0.00  0.00    +0.046 A 
ATOM     31  C   UNL     1      28.363  48.717   5.812  0.00  0.00    +0.128 A 
ATOM     34  C   UNL     1      27.025  49.021   6.093  0.00  0.00    +0.075 A 
ATOM     35  C   UNL     1      26.459  48.672   7.412  0.00  0.00    +0.202 C 
ATOM     36  O   UNL     1      27.151  48.121   8.258  0.00  0.00    -0.286 OA
ATOM     37  O   UNL     1      24.173  50.527   4.532  0.00  0.00    -0.287 OA
ATOM     38  C   UNL     1      25.046  48.998   7.695  0.00  0.00    +0.075 A 
ENDROOT
BRANCH   9  10
ATOM     10  C   UNL     1      22.033  50.582   6.057  0.00  0.00    +0.067 A 
ATOM     11  C   UNL     1      22.052  51.969   5.932  0.00  0.00    +0.132 A 
ATOM     12  C   UNL     1      21.203  52.597   5.021  0.00  0.00    +0.092 A 
ATOM     13  C   UNL     1      20.337  51.836   4.237  0.00  0.00    +0.138 A 
ATOM     14  C   UNL     1      20.320  50.447   4.363  0.00  0.00    +0.101 A 
ATOM     22  C   UNL     1      21.169  49.819   5.275  0.00  0.00    +0.142 A 
BRANCH  14  15
ATOM     15  C   UNL     1      19.412  49.653   3.542  0.00  0.00    +0.167 C 
ATOM     16  C   UNL     1      17.959  49.475   3.961  0.00  0.00    +0.092 C 
ATOM     17  O   UNL     1      19.800  49.110   2.490  0.00  0.00    -0.292 OA
ENDBRANCH  14  15
BRANCH  13  18
ATOM     18  O   UNL     1      19.516  52.470   3.352  0.00  0.00    -0.494 OA
ATOM     19  C   UNL     1      20.096  53.499   2.554  0.00  0.00    +0.277 C 
ENDBRANCH  13  18
BRANCH  11  20
ATOM     20  O   UNL     1      22.888  52.740   6.686  0.00  0.00    -0.506 OA
ATOM     21  H   UNL     1      22.425  53.120   7.449  0.00  0.00    +0.292 HD
ENDBRANCH  11  20
BRANCH  22  23
ATOM     23  O   UNL     1      21.145  48.459   5.393  0.00  0.00    -0.505 OA
ATOM     24  H   UNL     1      21.595  48.170   6.203  0.00  0.00    +0.292 HD
ENDBRANCH  22  23
ENDBRANCH   9  10
BRANCH   3   1
ATOM      1  O   UNL     1      25.209  48.060   9.930  0.00  0.00    -0.506 OA
ATOM      2  H   UNL     1      24.667  47.367  10.343  0.00  0.00    +0.292 HD
ENDBRANCH   3   1
BRANCH  31  32
ATOM     32  O   UNL     1      29.189  48.105   6.707  0.00  0.00    -0.506 OA
ATOM     33  H   UNL     1      29.777  47.478   6.260  0.00  0.00    +0.292 HD
ENDBRANCH  31  32
BRANCH   5   6
ATOM      6  C   UNL     1      20.953  49.907   8.603  0.00  0.00    +0.191 C 
BRANCH   6   7
ATOM      7  O   UNL     1      20.182  48.719   8.494  0.00  0.00    -0.390 OA
ATOM      8  H   UNL     1      20.796  47.970   8.582  0.00  0.00    +0.210 HD
ENDBRANCH   6   7
ENDBRANCH   5   6
TORSDOF 9
ENDMDL
MODEL 9
REMARK VINA RESULT:    -6.507     28.375     31.285
REMARK INTER + INTRA:          -9.643
REMARK INTER:                  -8.838
REMARK INTRA:                  -0.804
REMARK UNBOUND:                -0.663
REMARK  Name = C:\Users\HP\Downloads\Anthraquinone_pdb\AD36.pdb
REMARK  11 active torsions:
REMARK  status: ('A' for Active; 'I' for Inactive)
REMARK    1  A    between atoms: O_1  and  C_19
REMARK    2  A    between atoms: O_4  and  C_21
REMARK    3  A    between atoms: O_5  and  C_22
REMARK    4  A    between atoms: O_6  and  C_23
REMARK    5  A    between atoms: O_7  and  C_27
REMARK    6  A    between atoms: O_7  and  C_33
REMARK    7  A    between atoms: O_8  and  C_25
REMARK    8  A    between atoms: C_11  and  C_14
REMARK    9  A    between atoms: C_13  and  C_22
REMARK   10  A    between atoms: C_24  and  C_31
REMARK   11  A    between atoms: C_31  and  C_32
REMARK                            x       y       z     vdW  Elec       q    Type
REMARK                         _______ _______ _______ _____ _____    ______ ____
ROOT
ATOM      3  C   UNL     1      18.816  70.973   5.172  0.00  0.00    +0.129 A 
ATOM      4  C   UNL     1      19.819  71.897   5.469  0.00  0.00    +0.052 A 
ATOM      5  C   UNL     1      20.413  72.637   4.448  0.00  0.00    -0.010 A 
ATOM      9  C   UNL     1      20.008  72.455   3.126  0.00  0.00    +0.006 A 
ATOM     25  C   UNL     1      19.002  71.528   2.823  0.00  0.00    +0.045 A 
ATOM     26  C   UNL     1      18.580  71.342   1.420  0.00  0.00    +0.195 C 
ATOM     27  C   UNL     1      17.518  70.362   1.115  0.00  0.00    +0.037 A 
ATOM     28  C   UNL     1      17.108  70.176  -0.212  0.00  0.00    +0.012 A 
ATOM     29  C   UNL     1      16.106  69.252  -0.508  0.00  0.00    +0.004 A 
ATOM     30  C   UNL     1      15.511  68.514   0.512  0.00  0.00    +0.046 A 
ATOM     31  C   UNL     1      15.917  68.694   1.835  0.00  0.00    +0.128 A 
ATOM     34  C   UNL     1      16.923  69.621   2.137  0.00  0.00    +0.075 A 
ATOM     35  C   UNL     1      17.345  69.807   3.541  0.00  0.00    +0.202 C 
ATOM     36  O   UNL     1      16.822  69.158   4.438  0.00  0.00    -0.286 OA
ATOM     37  O   UNL     1      19.072  71.966   0.488  0.00  0.00    -0.287 OA
ATOM     38  C   UNL     1      18.407  70.788   3.846  0.00  0.00    +0.075 A 
ENDROOT
BRANCH   9  10
ATOM     10  C   UNL     1      20.675  73.265   2.118  0.00  0.00    +0.067 A 
ATOM     11  C   UNL     1      21.863  72.816   1.546  0.00  0.00    +0.132 A 
ATOM     12  C   UNL     1      22.507  73.590   0.580  0.00  0.00    +0.092 A 
ATOM     13  C   UNL     1      21.959  74.811   0.188  0.00  0.00    +0.138 A 
ATOM     14  C   UNL     1      20.769  75.258   0.762  0.00  0.00    +0.101 A 
ATOM     22  C   UNL     1      20.126  74.484   1.728  0.00  0.00    +0.142 A 
BRANCH  14  15
ATOM     15  C   UNL     1      20.198  76.537   0.350  0.00  0.00    +0.167 C 
ATOM     16  C   UNL     1      20.738  77.837   0.931  0.00  0.00    +0.092 C 
ATOM     17  O   UNL     1      19.270  76.593  -0.478  0.00  0.00    -0.292 OA
ENDBRANCH  14  15
BRANCH  13  18
ATOM     18  O   UNL     1      22.603  75.552  -0.758  0.00  0.00    -0.494 OA
ATOM     19  C   UNL     1      23.872  76.097  -0.400  0.00  0.00    +0.277 C 
ENDBRANCH  13  18
BRANCH  11  20
ATOM     20  O   UNL     1      22.423  71.626   1.909  0.00  0.00    -0.506 OA
ATOM     21  H   UNL     1      22.024  71.283   2.724  0.00  0.00    +0.292 HD
ENDBRANCH  11  20
BRANCH  22  23
ATOM     23  O   UNL     1      18.961  74.929   2.285  0.00  0.00    -0.505 OA
ATOM     24  H   UNL     1      18.938  75.899   2.318  0.00  0.00    +0.292 HD
ENDBRANCH  22  23
ENDBRANCH   9  10
BRANCH   3   1
ATOM      1  O   UNL     1      18.279  70.285   6.219  0.00  0.00    -0.506 OA
ATOM      2  H   UNL     1      17.317  70.418   6.240  0.00  0.00    +0.292 HD
ENDBRANCH   3   1
BRANCH  31  32
ATOM     32  O   UNL     1      15.293  67.939   2.783  0.00  0.00    -0.506 OA
ATOM     33  H   UNL     1      14.450  68.339   3.042  0.00  0.00    +0.292 HD
ENDBRANCH  31  32
BRANCH   5   6
ATOM      6  C   UNL     1      21.482  73.614   4.824  0.00  0.00    +0.191 C 
BRANCH   6   7
ATOM      7  O   UNL     1      21.769  73.483   6.209  0.00  0.00    -0.390 OA
ATOM      8  H   UNL     1      22.129  72.590   6.344  0.00  0.00    +0.210 HD
ENDBRANCH   6   7
ENDBRANCH   5   6
TORSDOF 9
ENDMDL
