MODEL 1
REMARK VINA RESULT:    -7.075      0.000      0.000
REMARK INTER + INTRA:          -7.960
REMARK INTER:                  -7.902
REMARK INTRA:                  -0.058
REMARK UNBOUND:                -0.058
REMARK  Name = C:\Users\HP\Downloads\Anthraquinone_pdb\AD3.pdb
REMARK  5 active torsions:
REMARK  status: ('A' for Active; 'I' for Inactive)
REMARK    1  A    between atoms: O_1  and  C_13
REMARK    2  A    between atoms: O_4  and  C_15
REMARK    3  A    between atoms: O_5  and  C_18
REMARK    4  A    between atoms: O_5  and  C_21
REMARK    5  A    between atoms: C_14  and  C_20
REMARK                            x       y       z     vdW  Elec       q    Type
REMARK                         _______ _______ _______ _____ _____    ______ ____
ROOT
ATOM      3  C   UNL     1      18.391  56.056  25.404  0.00  0.00    +0.129 A 
ATOM      4  C   UNL     1      17.829  55.289  26.425  0.00  0.00    +0.049 A 
ATOM      5  C   UNL     1      18.646  54.523  27.255  0.00  0.00    -0.046 A 
ATOM      6  C   UNL     1      18.041  53.706  28.345  0.00  0.00    +0.044 C 
ATOM      7  C   UNL     1      20.028  54.521  27.067  0.00  0.00    +0.016 A 
ATOM      8  C   UNL     1      20.597  55.289  26.044  0.00  0.00    +0.037 A 
ATOM      9  C   UNL     1      22.062  55.280  25.852  0.00  0.00    +0.195 C 
ATOM     10  C   UNL     1      22.648  56.095  24.769  0.00  0.00    +0.040 A 
ATOM     11  C   UNL     1      24.035  56.096  24.577  0.00  0.00    +0.058 A 
ATOM     12  C   UNL     1      24.597  56.863  23.556  0.00  0.00    +0.124 A 
ATOM     13  C   UNL     1      23.781  57.629  22.726  0.00  0.00    +0.091 A 
ATOM     14  C   UNL     1      22.398  57.631  22.915  0.00  0.00    +0.132 A 
ATOM     19  C   UNL     1      21.830  56.863  23.937  0.00  0.00    +0.075 A 
ATOM     20  C   UNL     1      20.365  56.871  24.129  0.00  0.00    +0.202 C 
ATOM     21  O   UNL     1      19.647  57.544  23.399  0.00  0.00    -0.286 OA
ATOM     22  O   UNL     1      22.780  54.608  26.581  0.00  0.00    -0.287 OA
ATOM     23  C   UNL     1      19.779  56.057  25.212  0.00  0.00    +0.075 A 
ENDROOT
BRANCH   3   1
ATOM      1  O   UNL     1      17.534  56.780  24.629  0.00  0.00    -0.506 OA
ATOM      2  H   UNL     1      17.270  56.276  23.845  0.00  0.00    +0.292 HD
ENDBRANCH   3   1
BRANCH  14  15
ATOM     15  O   UNL     1      21.660  58.403  22.067  0.00  0.00    -0.506 OA
ATOM     16  H   UNL     1      22.149  58.548  21.239  0.00  0.00    +0.292 HD
ENDBRANCH  14  15
BRANCH  12  17
ATOM     17  O   UNL     1      25.945  56.862  23.369  0.00  0.00    -0.495 OA
ATOM     18  C   UNL     1      26.553  58.105  23.022  0.00  0.00    +0.277 C 
ENDBRANCH  12  17
TORSDOF 3
ENDMDL
MODEL 2
REMARK VINA RESULT:    -7.006     15.030     17.311
REMARK INTER + INTRA:          -7.883
REMARK INTER:                  -7.819
REMARK INTRA:                  -0.064
REMARK UNBOUND:                -0.058
REMARK  Name = C:\Users\HP\Downloads\Anthraquinone_pdb\AD3.pdb
REMARK  5 active torsions:
REMARK  status: ('A' for Active; 'I' for Inactive)
REMARK    1  A    between atoms: O_1  and  C_13
REMARK    2  A    between atoms: O_4  and  C_15
REMARK    3  A    between atoms: O_5  and  C_18
REMARK    4  A    between atoms: O_5  and  C_21
REMARK    5  A    between atoms: C_14  and  C_20
REMARK                            x       y       z     vdW  Elec       q    Type
REMARK                         _______ _______ _______ _____ _____    ______ ____
ROOT
ATOM      3  C   UNL     1      17.877  41.731  25.046  0.00  0.00    +0.129 A 
ATOM      4  C   UNL     1      17.884  41.341  26.387  0.00  0.00    +0.049 A 
ATOM      5  C   UNL     1      16.984  40.379  26.839  0.00  0.00    -0.046 A 
ATOM      6  C   UNL     1      16.996  39.965  28.272  0.00  0.00    +0.044 C 
ATOM      7  C   UNL     1      16.073  39.802  25.955  0.00  0.00    +0.016 A 
ATOM      8  C   UNL     1      16.062  40.190  24.610  0.00  0.00    +0.037 A 
ATOM      9  C   UNL     1      15.093  39.573  23.680  0.00  0.00    +0.195 C 
ATOM     10  C   UNL     1      15.093  39.992  22.264  0.00  0.00    +0.040 A 
ATOM     11  C   UNL     1      14.179  39.415  21.373  0.00  0.00    +0.058 A 
ATOM     12  C   UNL     1      14.172  39.805  20.032  0.00  0.00    +0.124 A 
ATOM     13  C   UNL     1      15.073  40.766  19.579  0.00  0.00    +0.091 A 
ATOM     14  C   UNL     1      15.984  41.343  20.464  0.00  0.00    +0.132 A 
ATOM     19  C   UNL     1      15.994  40.956  21.809  0.00  0.00    +0.075 A 
ATOM     20  C   UNL     1      16.963  41.573  22.739  0.00  0.00    +0.202 C 
ATOM     21  O   UNL     1      17.753  42.419  22.340  0.00  0.00    -0.286 OA
ATOM     22  O   UNL     1      14.302  38.727  24.078  0.00  0.00    -0.287 OA
ATOM     23  C   UNL     1      16.964  41.154  24.155  0.00  0.00    +0.075 A 
ENDROOT
BRANCH   3   1
ATOM      1  O   UNL     1      18.784  42.678  24.672  0.00  0.00    -0.506 OA
ATOM      2  H   UNL     1      19.014  42.582  23.735  0.00  0.00    +0.292 HD
ENDBRANCH   3   1
BRANCH  14  15
ATOM     15  O   UNL     1      16.835  42.278  19.953  0.00  0.00    -0.506 OA
ATOM     16  H   UNL     1      16.452  42.673  19.151  0.00  0.00    +0.292 HD
ENDBRANCH  14  15
BRANCH  12  17
ATOM     17  O   UNL     1      13.283  39.244  19.167  0.00  0.00    -0.495 OA
ATOM     18  C   UNL     1      12.254  38.433  19.729  0.00  0.00    +0.277 C 
ENDBRANCH  12  17
TORSDOF 3
ENDMDL
MODEL 3
REMARK VINA RESULT:    -6.795     15.536     17.690
REMARK INTER + INTRA:          -7.647
REMARK INTER:                  -7.584
REMARK INTRA:                  -0.063
REMARK UNBOUND:                -0.058
REMARK  Name = C:\Users\HP\Downloads\Anthraquinone_pdb\AD3.pdb
REMARK  5 active torsions:
REMARK  status: ('A' for Active; 'I' for Inactive)
REMARK    1  A    between atoms: O_1  and  C_13
REMARK    2  A    between atoms: O_4  and  C_15
REMARK    3  A    between atoms: O_5  and  C_18
REMARK    4  A    between atoms: O_5  and  C_21
REMARK    5  A    between atoms: C_14  and  C_20
REMARK                            x       y       z     vdW  Elec       q    Type
REMARK                         _______ _______ _______ _____ _____    ______ ____
ROOT
ATOM      3  C   UNL     1      14.693  40.429  19.276  0.00  0.00    +0.129 A 
ATOM      4  C   UNL     1      14.840  41.473  18.362  0.00  0.00    +0.049 A 
ATOM      5  C   UNL     1      15.602  42.591  18.696  0.00  0.00    -0.046 A 
ATOM      6  C   UNL     1      15.757  43.704  17.715  0.00  0.00    +0.044 C 
ATOM      7  C   UNL     1      16.220  42.670  19.944  0.00  0.00    +0.016 A 
ATOM      8  C   UNL     1      16.075  41.625  20.863  0.00  0.00    +0.037 A 
ATOM      9  C   UNL     1      16.733  41.717  22.183  0.00  0.00    +0.195 C 
ATOM     10  C   UNL     1      16.572  40.607  23.144  0.00  0.00    +0.040 A 
ATOM     11  C   UNL     1      17.190  40.683  24.398  0.00  0.00    +0.058 A 
ATOM     12  C   UNL     1      17.043  39.639  25.312  0.00  0.00    +0.124 A 
ATOM     13  C   UNL     1      16.282  38.520  24.979  0.00  0.00    +0.091 A 
ATOM     14  C   UNL     1      15.664  38.441  23.730  0.00  0.00    +0.132 A 
ATOM     19  C   UNL     1      15.808  39.487  22.810  0.00  0.00    +0.075 A 
ATOM     20  C   UNL     1      15.150  39.394  21.491  0.00  0.00    +0.202 C 
ATOM     21  O   UNL     1      14.480  38.412  21.199  0.00  0.00    -0.286 OA
ATOM     22  O   UNL     1      17.403  42.700  22.476  0.00  0.00    -0.287 OA
ATOM     23  C   UNL     1      15.312  40.504  20.530  0.00  0.00    +0.075 A 
ENDROOT
BRANCH   3   1
ATOM      1  O   UNL     1      13.933  39.366  18.885  0.00  0.00    -0.506 OA
ATOM      2  H   UNL     1      12.993  39.602  18.870  0.00  0.00    +0.292 HD
ENDBRANCH   3   1
BRANCH  14  15
ATOM     15  O   UNL     1      14.934  37.319  23.471  0.00  0.00    -0.506 OA
ATOM     16  H   UNL     1      14.386  37.094  24.241  0.00  0.00    +0.292 HD
ENDBRANCH  14  15
BRANCH  12  17
ATOM     17  O   UNL     1      17.644  39.713  26.531  0.00  0.00    -0.495 OA
ATOM     18  C   UNL     1      18.087  41.000  26.958  0.00  0.00    +0.277 C 
ENDBRANCH  12  17
TORSDOF 3
ENDMDL
MODEL 4
REMARK VINA RESULT:    -6.603     25.419     27.257
REMARK INTER + INTRA:          -7.433
REMARK INTER:                  -7.369
REMARK INTRA:                  -0.064
REMARK UNBOUND:                -0.058
REMARK  Name = C:\Users\HP\Downloads\Anthraquinone_pdb\AD3.pdb
REMARK  5 active torsions:
REMARK  status: ('A' for Active; 'I' for Inactive)
REMARK    1  A    between atoms: O_1  and  C_13
REMARK    2  A    between atoms: O_4  and  C_15
REMARK    3  A    between atoms: O_5  and  C_18
REMARK    4  A    between atoms: O_5  and  C_21
REMARK    5  A    between atoms: C_14  and  C_20
REMARK                            x       y       z     vdW  Elec       q    Type
REMARK                         _______ _______ _______ _____ _____    ______ ____
ROOT
ATOM      3  C   UNL     1      16.960  69.538   2.983  0.00  0.00    +0.129 A 
ATOM      4  C   UNL     1      16.174  69.196   1.881  0.00  0.00    +0.049 A 
ATOM      5  C   UNL     1      16.319  69.886   0.679  0.00  0.00    -0.046 A 
ATOM      6  C   UNL     1      15.478  69.516  -0.496  0.00  0.00    +0.044 C 
ATOM      7  C   UNL     1      17.250  70.919   0.572  0.00  0.00    +0.016 A 
ATOM      8  C   UNL     1      18.040  71.265   1.674  0.00  0.00    +0.037 A 
ATOM      9  C   UNL     1      19.023  72.361   1.552  0.00  0.00    +0.195 C 
ATOM     10  C   UNL     1      19.850  72.716   2.723  0.00  0.00    +0.040 A 
ATOM     11  C   UNL     1      20.786  73.753   2.620  0.00  0.00    +0.058 A 
ATOM     12  C   UNL     1      21.572  74.095   3.722  0.00  0.00    +0.124 A 
ATOM     13  C   UNL     1      21.428  73.405   4.924  0.00  0.00    +0.091 A 
ATOM     14  C   UNL     1      20.497  72.371   5.030  0.00  0.00    +0.132 A 
ATOM     19  C   UNL     1      19.706  72.026   3.928  0.00  0.00    +0.075 A 
ATOM     20  C   UNL     1      18.723  70.930   4.051  0.00  0.00    +0.202 C 
ATOM     21  O   UNL     1      18.595  70.325   5.108  0.00  0.00    -0.286 OA
ATOM     22  O   UNL     1      19.150  72.967   0.495  0.00  0.00    -0.287 OA
ATOM     23  C   UNL     1      17.895  70.575   2.880  0.00  0.00    +0.075 A 
ENDROOT
BRANCH   3   1
ATOM      1  O   UNL     1      16.765  68.824   4.128  0.00  0.00    -0.506 OA
ATOM      2  H   UNL     1      15.880  68.985   4.488  0.00  0.00    +0.292 HD
ENDBRANCH   3   1
BRANCH  14  15
ATOM     15  O   UNL     1      20.408  71.741   6.236  0.00  0.00    -0.506 OA
ATOM     16  H   UNL     1      19.563  71.957   6.663  0.00  0.00    +0.292 HD
ENDBRANCH  14  15
BRANCH  12  17
ATOM     17  O   UNL     1      22.480  75.103   3.621  0.00  0.00    -0.495 OA
ATOM     18  C   UNL     1      22.421  75.915   2.450  0.00  0.00    +0.277 C 
ENDBRANCH  12  17
TORSDOF 3
ENDMDL
MODEL 5
REMARK VINA RESULT:    -6.483     15.009     17.289
REMARK INTER + INTRA:          -7.299
REMARK INTER:                  -7.247
REMARK INTRA:                  -0.052
REMARK UNBOUND:                -0.058
REMARK  Name = C:\Users\HP\Downloads\Anthraquinone_pdb\AD3.pdb
REMARK  5 active torsions:
REMARK  status: ('A' for Active; 'I' for Inactive)
REMARK    1  A    between atoms: O_1  and  C_13
REMARK    2  A    between atoms: O_4  and  C_15
REMARK    3  A    between atoms: O_5  and  C_18
REMARK    4  A    between atoms: O_5  and  C_21
REMARK    5  A    between atoms: C_14  and  C_20
REMARK                            x       y       z     vdW  Elec       q    Type
REMARK                         _______ _______ _______ _____ _____    ______ ____
ROOT
ATOM      3  C   UNL     1      15.868  41.148  20.483  0.00  0.00    +0.129 A 
ATOM      4  C   UNL     1      14.961  40.491  19.651  0.00  0.00    +0.049 A 
ATOM      5  C   UNL     1      14.175  39.456  20.154  0.00  0.00    -0.046 A 
ATOM      6  C   UNL     1      13.206  38.757  19.262  0.00  0.00    +0.044 C 
ATOM      7  C   UNL     1      14.293  39.073  21.490  0.00  0.00    +0.016 A 
ATOM      8  C   UNL     1      15.202  39.730  22.328  0.00  0.00    +0.037 A 
ATOM      9  C   UNL     1      15.321  39.318  23.742  0.00  0.00    +0.195 C 
ATOM     10  C   UNL     1      16.284  40.019  24.615  0.00  0.00    +0.040 A 
ATOM     11  C   UNL     1      16.405  39.638  25.957  0.00  0.00    +0.058 A 
ATOM     12  C   UNL     1      17.313  40.295  26.789  0.00  0.00    +0.124 A 
ATOM     13  C   UNL     1      18.098  41.331  26.287  0.00  0.00    +0.091 A 
ATOM     14  C   UNL     1      17.980  41.714  24.950  0.00  0.00    +0.132 A 
ATOM     19  C   UNL     1      17.071  41.057  24.111  0.00  0.00    +0.075 A 
ATOM     20  C   UNL     1      16.953  41.469  22.698  0.00  0.00    +0.202 C 
ATOM     21  O   UNL     1      17.644  42.378  22.256  0.00  0.00    -0.286 OA
ATOM     22  O   UNL     1      14.631  38.408  24.184  0.00  0.00    -0.287 OA
ATOM     23  C   UNL     1      15.990  40.767  21.825  0.00  0.00    +0.075 A 
ENDROOT
BRANCH   3   1
ATOM      1  O   UNL     1      16.605  42.151  19.925  0.00  0.00    -0.506 OA
ATOM      2  H   UNL     1      16.782  42.849  20.574  0.00  0.00    +0.292 HD
ENDBRANCH   3   1
BRANCH  14  15
ATOM     15  O   UNL     1      18.779  42.734  24.525  0.00  0.00    -0.506 OA
ATOM     16  H   UNL     1      19.698  42.426  24.450  0.00  0.00    +0.292 HD
ENDBRANCH  14  15
BRANCH  12  17
ATOM     17  O   UNL     1      17.432  39.924  28.093  0.00  0.00    -0.495 OA
ATOM     18  C   UNL     1      16.540  40.533  29.024  0.00  0.00    +0.277 C 
ENDBRANCH  12  17
TORSDOF 3
ENDMDL
MODEL 6
REMARK VINA RESULT:    -6.454      3.087      5.560
REMARK INTER + INTRA:          -7.266
REMARK INTER:                  -7.204
REMARK INTRA:                  -0.062
REMARK UNBOUND:                -0.058
REMARK  Name = C:\Users\HP\Downloads\Anthraquinone_pdb\AD3.pdb
REMARK  5 active torsions:
REMARK  status: ('A' for Active; 'I' for Inactive)
REMARK    1  A    between atoms: O_1  and  C_13
REMARK    2  A    between atoms: O_4  and  C_15
REMARK    3  A    between atoms: O_5  and  C_18
REMARK    4  A    between atoms: O_5  and  C_21
REMARK    5  A    between atoms: C_14  and  C_20
REMARK                            x       y       z     vdW  Elec       q    Type
REMARK                         _______ _______ _______ _____ _____    ______ ____
ROOT
ATOM      3  C   UNL     1      23.864  56.425  23.584  0.00  0.00    +0.129 A 
ATOM      4  C   UNL     1      22.917  55.893  24.460  0.00  0.00    +0.049 A 
ATOM      5  C   UNL     1      22.744  56.451  25.726  0.00  0.00    -0.046 A 
ATOM      6  C   UNL     1      21.730  55.879  26.658  0.00  0.00    +0.044 C 
ATOM      7  C   UNL     1      23.516  57.543  26.120  0.00  0.00    +0.016 A 
ATOM      8  C   UNL     1      24.467  58.081  25.245  0.00  0.00    +0.037 A 
ATOM      9  C   UNL     1      25.280  59.238  25.672  0.00  0.00    +0.195 C 
ATOM     10  C   UNL     1      26.280  59.795  24.738  0.00  0.00    +0.040 A 
ATOM     11  C   UNL     1      27.057  60.892  25.131  0.00  0.00    +0.058 A 
ATOM     12  C   UNL     1      28.004  61.424  24.255  0.00  0.00    +0.124 A 
ATOM     13  C   UNL     1      28.177  60.868  22.989  0.00  0.00    +0.091 A 
ATOM     14  C   UNL     1      27.404  59.775  22.594  0.00  0.00    +0.132 A 
ATOM     19  C   UNL     1      26.454  59.236  23.470  0.00  0.00    +0.075 A 
ATOM     20  C   UNL     1      25.641  58.079  23.043  0.00  0.00    +0.202 C 
ATOM     21  O   UNL     1      25.794  57.589  21.932  0.00  0.00    -0.286 OA
ATOM     22  O   UNL     1      25.128  59.728  26.784  0.00  0.00    -0.287 OA
ATOM     23  C   UNL     1      24.641  57.522  23.977  0.00  0.00    +0.075 A 
ENDROOT
BRANCH   3   1
ATOM      1  O   UNL     1      23.982  55.830  22.363  0.00  0.00    -0.506 OA
ATOM      2  H   UNL     1      24.088  54.872  22.457  0.00  0.00    +0.292 HD
ENDBRANCH   3   1
BRANCH  14  15
ATOM     15  O   UNL     1      27.627  59.280  21.344  0.00  0.00    -0.506 OA
ATOM     16  H   UNL     1      26.813  58.879  20.995  0.00  0.00    +0.292 HD
ENDBRANCH  14  15
BRANCH  12  17
ATOM     17  O   UNL     1      28.760  62.490  24.637  0.00  0.00    -0.495 OA
ATOM     18  C   UNL     1      29.020  62.633  26.032  0.00  0.00    +0.277 C 
ENDBRANCH  12  17
TORSDOF 3
ENDMDL
MODEL 7
REMARK VINA RESULT:    -6.453     25.432     27.544
REMARK INTER + INTRA:          -7.265
REMARK INTER:                  -7.203
REMARK INTRA:                  -0.062
REMARK UNBOUND:                -0.058
REMARK  Name = C:\Users\HP\Downloads\Anthraquinone_pdb\AD3.pdb
REMARK  5 active torsions:
REMARK  status: ('A' for Active; 'I' for Inactive)
REMARK    1  A    between atoms: O_1  and  C_13
REMARK    2  A    between atoms: O_4  and  C_15
REMARK    3  A    between atoms: O_5  and  C_18
REMARK    4  A    between atoms: O_5  and  C_21
REMARK    5  A    between atoms: C_14  and  C_20
REMARK                            x       y       z     vdW  Elec       q    Type
REMARK                         _______ _______ _______ _____ _____    ______ ____
ROOT
ATOM      3  C   UNL     1      20.594  72.359   4.945  0.00  0.00    +0.129 A 
ATOM      4  C   UNL     1      21.549  73.362   4.773  0.00  0.00    +0.049 A 
ATOM      5  C   UNL     1      21.684  73.993   3.537  0.00  0.00    -0.046 A 
ATOM      6  C   UNL     1      22.705  75.064   3.358  0.00  0.00    +0.044 C 
ATOM      7  C   UNL     1      20.865  73.624   2.470  0.00  0.00    +0.016 A 
ATOM      8  C   UNL     1      19.905  72.619   2.639  0.00  0.00    +0.037 A 
ATOM      9  C   UNL     1      19.043  72.236   1.502  0.00  0.00    +0.195 C 
ATOM     10  C   UNL     1      18.035  71.173   1.694  0.00  0.00    +0.040 A 
ATOM     11  C   UNL     1      17.211  70.801   0.625  0.00  0.00    +0.058 A 
ATOM     12  C   UNL     1      16.255  69.798   0.798  0.00  0.00    +0.124 A 
ATOM     13  C   UNL     1      16.119  69.167   2.033  0.00  0.00    +0.091 A 
ATOM     14  C   UNL     1      16.939  69.536   3.101  0.00  0.00    +0.132 A 
ATOM     19  C   UNL     1      17.899  70.540   2.932  0.00  0.00    +0.075 A 
ATOM     20  C   UNL     1      18.761  70.924   4.068  0.00  0.00    +0.202 C 
ATOM     21  O   UNL     1      18.643  70.368   5.153  0.00  0.00    -0.286 OA
ATOM     22  O   UNL     1      19.161  72.790   0.417  0.00  0.00    -0.287 OA
ATOM     23  C   UNL     1      19.769  71.986   3.876  0.00  0.00    +0.075 A 
ENDROOT
BRANCH   3   1
ATOM      1  O   UNL     1      20.516  71.783   6.179  0.00  0.00    -0.506 OA
ATOM      2  H   UNL     1      19.831  72.210   6.715  0.00  0.00    +0.292 HD
ENDBRANCH   3   1
BRANCH  14  15
ATOM     15  O   UNL     1      16.752  68.877   4.279  0.00  0.00    -0.506 OA
ATOM     16  H   UNL     1      15.833  68.985   4.579  0.00  0.00    +0.292 HD
ENDBRANCH  14  15
BRANCH  12  17
ATOM     17  O   UNL     1      15.455  69.436  -0.242  0.00  0.00    -0.495 OA
ATOM     18  C   UNL     1      14.442  68.468   0.025  0.00  0.00    +0.277 C 
ENDBRANCH  12  17
TORSDOF 3
ENDMDL
MODEL 8
REMARK VINA RESULT:    -6.445     15.520     17.470
REMARK INTER + INTRA:          -7.257
REMARK INTER:                  -7.194
REMARK INTRA:                  -0.063
REMARK UNBOUND:                -0.058
REMARK  Name = C:\Users\HP\Downloads\Anthraquinone_pdb\AD3.pdb
REMARK  5 active torsions:
REMARK  status: ('A' for Active; 'I' for Inactive)
REMARK    1  A    between atoms: O_1  and  C_13
REMARK    2  A    between atoms: O_4  and  C_15
REMARK    3  A    between atoms: O_5  and  C_18
REMARK    4  A    between atoms: O_5  and  C_21
REMARK    5  A    between atoms: C_14  and  C_20
REMARK                            x       y       z     vdW  Elec       q    Type
REMARK                         _______ _______ _______ _____ _____    ______ ____
ROOT
ATOM      3  C   UNL     1      16.067  38.750  24.761  0.00  0.00    +0.129 A 
ATOM      4  C   UNL     1      16.769  39.172  25.891  0.00  0.00    +0.049 A 
ATOM      5  C   UNL     1      17.453  40.386  25.875  0.00  0.00    -0.046 A 
ATOM      6  C   UNL     1      18.201  40.833  27.085  0.00  0.00    +0.044 C 
ATOM      7  C   UNL     1      17.438  41.183  24.731  0.00  0.00    +0.016 A 
ATOM      8  C   UNL     1      16.735  40.764  23.596  0.00  0.00    +0.037 A 
ATOM      9  C   UNL     1      16.724  41.615  22.388  0.00  0.00    +0.195 C 
ATOM     10  C   UNL     1      15.979  41.161  21.197  0.00  0.00    +0.040 A 
ATOM     11  C   UNL     1      15.961  41.959  20.046  0.00  0.00    +0.058 A 
ATOM     12  C   UNL     1      15.259  41.537  18.916  0.00  0.00    +0.124 A 
ATOM     13  C   UNL     1      14.574  40.323  18.931  0.00  0.00    +0.091 A 
ATOM     14  C   UNL     1      14.590  39.525  20.076  0.00  0.00    +0.132 A 
ATOM     19  C   UNL     1      15.293  39.944  21.211  0.00  0.00    +0.075 A 
ATOM     20  C   UNL     1      15.304  39.093  22.419  0.00  0.00    +0.202 C 
ATOM     21  O   UNL     1      14.704  38.026  22.431  0.00  0.00    -0.286 OA
ATOM     22  O   UNL     1      17.325  42.682  22.375  0.00  0.00    -0.287 OA
ATOM     23  C   UNL     1      16.050  39.547  23.610  0.00  0.00    +0.075 A 
ENDROOT
BRANCH   3   1
ATOM      1  O   UNL     1      15.422  37.551  24.844  0.00  0.00    -0.506 OA
ATOM      2  H   UNL     1      16.014  36.865  25.189  0.00  0.00    +0.292 HD
ENDBRANCH   3   1
BRANCH  14  15
ATOM     15  O   UNL     1      13.900  38.351  20.020  0.00  0.00    -0.506 OA
ATOM     16  H   UNL     1      14.224  37.810  19.281  0.00  0.00    +0.292 HD
ENDBRANCH  14  15
BRANCH  12  17
ATOM     17  O   UNL     1      15.243  42.312  17.798  0.00  0.00    -0.495 OA
ATOM     18  C   UNL     1      15.586  43.687  17.957  0.00  0.00    +0.277 C 
ENDBRANCH  12  17
TORSDOF 3
ENDMDL
MODEL 9
REMARK VINA RESULT:    -6.322     25.390     27.491
REMARK INTER + INTRA:          -7.119
REMARK INTER:                  -7.060
REMARK INTRA:                  -0.059
REMARK UNBOUND:                -0.058
REMARK  Name = C:\Users\HP\Downloads\Anthraquinone_pdb\AD3.pdb
REMARK  5 active torsions:
REMARK  status: ('A' for Active; 'I' for Inactive)
REMARK    1  A    between atoms: O_1  and  C_13
REMARK    2  A    between atoms: O_4  and  C_15
REMARK    3  A    between atoms: O_5  and  C_18
REMARK    4  A    between atoms: O_5  and  C_21
REMARK    5  A    between atoms: C_14  and  C_20
REMARK                            x       y       z     vdW  Elec       q    Type
REMARK                         _______ _______ _______ _____ _____    ______ ____
ROOT
ATOM      3  C   UNL     1      15.962  69.460  -0.753  0.00  0.00    +0.129 A 
ATOM      4  C   UNL     1      15.019  68.434  -0.832  0.00  0.00    +0.049 A 
ATOM      5  C   UNL     1      14.646  67.737   0.316  0.00  0.00    -0.046 A 
ATOM      6  C   UNL     1      13.638  66.642   0.226  0.00  0.00    +0.044 C 
ATOM      7  C   UNL     1      15.213  68.064   1.548  0.00  0.00    +0.016 A 
ATOM      8  C   UNL     1      16.159  69.092   1.632  0.00  0.00    +0.037 A 
ATOM      9  C   UNL     1      16.754  69.431   2.941  0.00  0.00    +0.195 C 
ATOM     10  C   UNL     1      17.750  70.519   3.016  0.00  0.00    +0.040 A 
ATOM     11  C   UNL     1      18.322  70.849   4.251  0.00  0.00    +0.058 A 
ATOM     12  C   UNL     1      19.264  71.876   4.330  0.00  0.00    +0.124 A 
ATOM     13  C   UNL     1      19.637  72.573   3.183  0.00  0.00    +0.091 A 
ATOM     14  C   UNL     1      19.070  72.246   1.951  0.00  0.00    +0.132 A 
ATOM     19  C   UNL     1      18.125  71.217   1.866  0.00  0.00    +0.075 A 
ATOM     20  C   UNL     1      17.530  70.878   0.557  0.00  0.00    +0.202 C 
ATOM     21  O   UNL     1      17.859  71.490  -0.452  0.00  0.00    -0.286 OA
ATOM     22  O   UNL     1      16.426  68.819   3.950  0.00  0.00    -0.287 OA
ATOM     23  C   UNL     1      16.533  69.791   0.482  0.00  0.00    +0.075 A 
ENDROOT
BRANCH   3   1
ATOM      1  O   UNL     1      16.281  70.099  -1.914  0.00  0.00    -0.506 OA
ATOM      2  H   UNL     1      17.173  70.477  -1.865  0.00  0.00    +0.292 HD
ENDBRANCH   3   1
BRANCH  14  15
ATOM     15  O   UNL     1      19.481  72.969   0.870  0.00  0.00    -0.506 OA
ATOM     16  H   UNL     1      18.847  73.682   0.686  0.00  0.00    +0.292 HD
ENDBRANCH  14  15
BRANCH  12  17
ATOM     17  O   UNL     1      19.820  72.196   5.531  0.00  0.00    -0.495 OA
ATOM     18  C   UNL     1      21.157  72.692   5.515  0.00  0.00    +0.277 C 
ENDBRANCH  12  17
TORSDOF 3
ENDMDL
