MODEL 1
REMARK VINA RESULT:    -9.258      0.000      0.000
REMARK INTER + INTRA:         -11.882
REMARK INTER:                 -11.153
REMARK INTRA:                  -0.729
REMARK UNBOUND:                -0.729
REMARK  Name = C:\Users\HP\Downloads\Anthraquinone_pdb\AD42.pdb
REMARK  8 active torsions:
REMARK  status: ('A' for Active; 'I' for Inactive)
REMARK    1  A    between atoms: C_3  and  C_4
REMARK    2  A    between atoms: C_6  and  O_7
REMARK    3  A    between atoms: C_16  and  O_17
REMARK    4  A    between atoms: C_18  and  C_19
REMARK    5  A    between atoms: C_19  and  O_20
REMARK    6  A    between atoms: C_28  and  C_29
REMARK    7  A    between atoms: C_31  and  O_32
REMARK    8  A    between atoms: C_33  and  O_34
REMARK                            x       y       z     vdW  Elec       q    Type
REMARK                         _______ _______ _______ _____ _____    ______ ____
ROOT
ATOM      8  C   UNL     1      20.403  57.930  29.864  0.00  0.00    +0.146 C 
ATOM      9  C   UNL     1      19.642  59.096  30.498  0.00  0.00    +0.008 A 
ATOM     10  C   UNL     1      20.357  60.130  31.151  0.00  0.00    +0.011 A 
ATOM     11  C   UNL     1      19.719  61.192  31.789  0.00  0.00    -0.047 A 
ATOM     12  C   UNL     1      18.328  61.189  31.847  0.00  0.00    +0.049 A 
ATOM     13  C   UNL     1      17.597  60.157  31.245  0.00  0.00    +0.128 A 
ATOM     16  C   UNL     1      20.522  62.294  32.414  0.00  0.00    +0.044 C 
ATOM     17  C   UNL     1      18.241  59.103  30.559  0.00  0.00    +0.070 A 
ATOM     18  C   UNL     1      17.482  57.984  29.937  0.00  0.00    +0.201 C 
ATOM     19  O   UNL     1      16.273  57.839  30.093  0.00  0.00    -0.286 OA
ATOM     20  C   UNL     1      18.186  57.004  29.069  0.00  0.00    +0.070 A 
ATOM     21  C   UNL     1      17.457  55.988  28.423  0.00  0.00    +0.128 A 
ATOM     22  C   UNL     1      18.094  55.036  27.634  0.00  0.00    +0.046 A 
ATOM     23  C   UNL     1      19.472  55.095  27.463  0.00  0.00    +0.004 A 
ATOM     24  C   UNL     1      20.211  56.092  28.106  0.00  0.00    +0.008 A 
ATOM     27  C   UNL     1      19.584  57.052  28.934  0.00  0.00    +0.007 A 
ENDROOT
BRANCH   8   7
ATOM      1  C   UNL     1      26.709  59.699  25.158  0.00  0.00    +0.016 A 
ATOM      2  C   UNL     1      25.484  59.525  25.820  0.00  0.00    +0.037 A 
ATOM      3  C   UNL     1      25.473  58.857  27.140  0.00  0.00    +0.195 C 
ATOM      4  C   UNL     1      24.207  58.764  27.892  0.00  0.00    +0.037 A 
ATOM      5  C   UNL     1      24.185  58.166  29.161  0.00  0.00    +0.013 A 
ATOM      6  C   UNL     1      22.973  58.001  29.843  0.00  0.00    +0.011 A 
ATOM      7  C   UNL     1      21.753  58.420  29.267  0.00  0.00    +0.035 A 
ATOM     30  C   UNL     1      21.819  59.108  28.041  0.00  0.00    +0.135 A 
ATOM     33  C   UNL     1      23.030  59.242  27.335  0.00  0.00    +0.075 A 
ATOM     34  C   UNL     1      23.027  59.801  25.968  0.00  0.00    +0.202 C 
ATOM     35  O   UNL     1      21.937  60.080  25.477  0.00  0.00    -0.286 OA
ATOM     36  O   UNL     1      26.502  58.381  27.604  0.00  0.00    -0.287 OA
ATOM     37  C   UNL     1      24.299  59.978  25.237  0.00  0.00    +0.075 A 
ATOM     38  C   UNL     1      24.349  60.590  23.976  0.00  0.00    +0.129 A 
ATOM     41  C   UNL     1      25.568  60.766  23.319  0.00  0.00    +0.049 A 
ATOM     42  C   UNL     1      26.757  60.329  23.909  0.00  0.00    -0.046 A 
ATOM     43  C   UNL     1      28.064  60.552  23.207  0.00  0.00    +0.044 C 
BRANCH  30  31
ATOM     31  O   UNL     1      20.649  59.621  27.538  0.00  0.00    -0.506 OA
ATOM     32  H   UNL     1      20.272  60.257  28.195  0.00  0.00    +0.292 HD
ENDBRANCH  30  31
BRANCH  38  39
ATOM     39  O   UNL     1      23.210  61.038  23.370  0.00  0.00    -0.506 OA
ATOM     40  H   UNL     1      22.965  61.915  23.704  0.00  0.00    +0.292 HD
ENDBRANCH  38  39
ENDBRANCH   8   7
BRANCH  13  14
ATOM     14  O   UNL     1      16.235  60.198  31.347  0.00  0.00    -0.506 OA
ATOM     15  H   UNL     1      15.917  61.093  31.151  0.00  0.00    +0.292 HD
ENDBRANCH  13  14
BRANCH  21  25
ATOM     25  O   UNL     1      16.099  55.841  28.552  0.00  0.00    -0.506 OA
ATOM     26  H   UNL     1      15.703  56.012  27.664  0.00  0.00    +0.292 HD
ENDBRANCH  21  25
BRANCH   8  28
ATOM     28  O   UNL     1      20.550  57.063  31.000  0.00  0.00    -0.375 OA
ATOM     29  H   UNL     1      19.760  56.491  31.022  0.00  0.00    +0.211 HD
ENDBRANCH   8  28
TORSDOF 6
ENDMDL
MODEL 2
REMARK VINA RESULT:    -9.201      2.536      7.838
REMARK INTER + INTRA:         -11.813
REMARK INTER:                 -11.120
REMARK INTRA:                  -0.694
REMARK UNBOUND:                -0.729
REMARK  Name = C:\Users\HP\Downloads\Anthraquinone_pdb\AD42.pdb
REMARK  8 active torsions:
REMARK  status: ('A' for Active; 'I' for Inactive)
REMARK    1  A    between atoms: C_3  and  C_4
REMARK    2  A    between atoms: C_6  and  O_7
REMARK    3  A    between atoms: C_16  and  O_17
REMARK    4  A    between atoms: C_18  and  C_19
REMARK    5  A    between atoms: C_19  and  O_20
REMARK    6  A    between atoms: C_28  and  C_29
REMARK    7  A    between atoms: C_31  and  O_32
REMARK    8  A    between atoms: C_33  and  O_34
REMARK                            x       y       z     vdW  Elec       q    Type
REMARK                         _______ _______ _______ _____ _____    ______ ____
ROOT
ATOM      8  C   UNL     1      20.696  56.924  28.154  0.00  0.00    +0.146 C 
ATOM      9  C   UNL     1      21.754  57.576  27.261  0.00  0.00    +0.008 A 
ATOM     10  C   UNL     1      21.815  58.988  27.158  0.00  0.00    +0.011 A 
ATOM     11  C   UNL     1      22.723  59.638  26.326  0.00  0.00    -0.047 A 
ATOM     12  C   UNL     1      23.547  58.864  25.513  0.00  0.00    +0.049 A 
ATOM     13  C   UNL     1      23.480  57.466  25.564  0.00  0.00    +0.128 A 
ATOM     16  C   UNL     1      22.788  61.136  26.298  0.00  0.00    +0.044 C 
ATOM     17  C   UNL     1      22.591  56.804  26.441  0.00  0.00    +0.070 A 
ATOM     18  C   UNL     1      22.486  55.321  26.490  0.00  0.00    +0.201 C 
ATOM     19  O   UNL     1      23.063  54.591  25.689  0.00  0.00    -0.286 OA
ATOM     20  C   UNL     1      21.678  54.670  27.556  0.00  0.00    +0.070 A 
ATOM     21  C   UNL     1      21.638  53.266  27.646  0.00  0.00    +0.128 A 
ATOM     22  C   UNL     1      20.862  52.630  28.609  0.00  0.00    +0.046 A 
ATOM     23  C   UNL     1      20.127  53.389  29.511  0.00  0.00    +0.004 A 
ATOM     24  C   UNL     1      20.149  54.783  29.428  0.00  0.00    +0.008 A 
ATOM     27  C   UNL     1      20.910  55.448  28.439  0.00  0.00    +0.007 A 
ENDROOT
BRANCH   8   7
ATOM      1  C   UNL     1      18.197  62.406  33.515  0.00  0.00    +0.016 A 
ATOM      2  C   UNL     1      18.397  61.395  32.563  0.00  0.00    +0.037 A 
ATOM      3  C   UNL     1      19.781  60.984  32.235  0.00  0.00    +0.195 C 
ATOM      4  C   UNL     1      20.000  59.851  31.316  0.00  0.00    +0.037 A 
ATOM      5  C   UNL     1      21.303  59.425  31.022  0.00  0.00    +0.013 A 
ATOM      6  C   UNL     1      21.519  58.405  30.088  0.00  0.00    +0.011 A 
ATOM      7  C   UNL     1      20.437  57.794  29.416  0.00  0.00    +0.035 A 
ATOM     30  C   UNL     1      19.138  58.170  29.807  0.00  0.00    +0.135 A 
ATOM     33  C   UNL     1      18.917  59.221  30.718  0.00  0.00    +0.075 A 
ATOM     34  C   UNL     1      17.545  59.712  30.958  0.00  0.00    +0.202 C 
ATOM     35  O   UNL     1      16.643  59.206  30.296  0.00  0.00    -0.286 OA
ATOM     36  O   UNL     1      20.736  61.580  32.717  0.00  0.00    -0.287 OA
ATOM     37  C   UNL     1      17.305  60.789  31.940  0.00  0.00    +0.075 A 
ATOM     38  C   UNL     1      16.009  61.219  32.264  0.00  0.00    +0.129 A 
ATOM     41  C   UNL     1      15.811  62.223  33.214  0.00  0.00    +0.049 A 
ATOM     42  C   UNL     1      16.903  62.817  33.851  0.00  0.00    -0.046 A 
ATOM     43  C   UNL     1      16.675  63.873  34.893  0.00  0.00    +0.044 C 
BRANCH  30  31
ATOM     31  O   UNL     1      18.085  57.493  29.243  0.00  0.00    -0.506 OA
ATOM     32  H   UNL     1      17.243  57.836  29.631  0.00  0.00    +0.292 HD
ENDBRANCH  30  31
BRANCH  38  39
ATOM     39  O   UNL     1      14.916  60.657  31.669  0.00  0.00    -0.506 OA
ATOM     40  H   UNL     1      14.182  60.584  32.299  0.00  0.00    +0.292 HD
ENDBRANCH  38  39
ENDBRANCH   8   7
BRANCH  13  14
ATOM     14  O   UNL     1      24.301  56.758  24.734  0.00  0.00    -0.506 OA
ATOM     15  H   UNL     1      25.177  56.663  25.139  0.00  0.00    +0.292 HD
ENDBRANCH  13  14
BRANCH  21  25
ATOM     25  O   UNL     1      22.314  52.438  26.785  0.00  0.00    -0.506 OA
ATOM     26  H   UNL     1      22.462  51.585  27.258  0.00  0.00    +0.292 HD
ENDBRANCH  21  25
BRANCH   8  28
ATOM     28  O   UNL     1      19.585  56.869  27.246  0.00  0.00    -0.375 OA
ATOM     29  H   UNL     1      19.814  56.218  26.557  0.00  0.00    +0.211 HD
ENDBRANCH   8  28
TORSDOF 6
ENDMDL
MODEL 3
REMARK VINA RESULT:    -9.066      2.670      8.704
REMARK INTER + INTRA:         -11.650
REMARK INTER:                 -10.906
REMARK INTRA:                  -0.744
REMARK UNBOUND:                -0.729
REMARK  Name = C:\Users\HP\Downloads\Anthraquinone_pdb\AD42.pdb
REMARK  8 active torsions:
REMARK  status: ('A' for Active; 'I' for Inactive)
REMARK    1  A    between atoms: C_3  and  C_4
REMARK    2  A    between atoms: C_6  and  O_7
REMARK    3  A    between atoms: C_16  and  O_17
REMARK    4  A    between atoms: C_18  and  C_19
REMARK    5  A    between atoms: C_19  and  O_20
REMARK    6  A    between atoms: C_28  and  C_29
REMARK    7  A    between atoms: C_31  and  O_32
REMARK    8  A    between atoms: C_33  and  O_34
REMARK                            x       y       z     vdW  Elec       q    Type
REMARK                         _______ _______ _______ _____ _____    ______ ____
ROOT
ATOM      8  C   UNL     1      24.407  58.886  26.154  0.00  0.00    +0.146 C 
ATOM      9  C   UNL     1      23.580  57.905  25.321  0.00  0.00    +0.008 A 
ATOM     10  C   UNL     1      22.327  57.453  25.804  0.00  0.00    +0.011 A 
ATOM     11  C   UNL     1      21.551  56.524  25.114  0.00  0.00    -0.047 A 
ATOM     12  C   UNL     1      22.067  55.967  23.948  0.00  0.00    +0.049 A 
ATOM     13  C   UNL     1      23.322  56.365  23.469  0.00  0.00    +0.128 A 
ATOM     16  C   UNL     1      20.204  56.124  25.638  0.00  0.00    +0.044 C 
ATOM     17  C   UNL     1      24.091  57.341  24.143  0.00  0.00    +0.070 A 
ATOM     18  C   UNL     1      25.437  57.757  23.664  0.00  0.00    +0.201 C 
ATOM     19  O   UNL     1      26.014  57.190  22.740  0.00  0.00    -0.286 OA
ATOM     20  C   UNL     1      26.123  58.916  24.295  0.00  0.00    +0.070 A 
ATOM     21  C   UNL     1      27.363  59.353  23.795  0.00  0.00    +0.128 A 
ATOM     22  C   UNL     1      28.044  60.411  24.389  0.00  0.00    +0.046 A 
ATOM     23  C   UNL     1      27.486  61.062  25.482  0.00  0.00    +0.004 A 
ATOM     24  C   UNL     1      26.259  60.632  25.995  0.00  0.00    +0.008 A 
ATOM     27  C   UNL     1      25.565  59.541  25.423  0.00  0.00    +0.007 A 
ENDROOT
BRANCH   8   7
ATOM      1  C   UNL     1      18.538  62.452  30.384  0.00  0.00    +0.016 A 
ATOM      2  C   UNL     1      19.593  61.698  29.847  0.00  0.00    +0.037 A 
ATOM      3  C   UNL     1      20.153  62.084  28.533  0.00  0.00    +0.195 C 
ATOM      4  C   UNL     1      21.330  61.365  28.009  0.00  0.00    +0.037 A 
ATOM      5  C   UNL     1      21.895  61.741  26.782  0.00  0.00    +0.013 A 
ATOM      6  C   UNL     1      22.960  61.011  26.242  0.00  0.00    +0.011 A 
ATOM      7  C   UNL     1      23.477  59.878  26.910  0.00  0.00    +0.035 A 
ATOM     30  C   UNL     1      22.958  59.587  28.186  0.00  0.00    +0.135 A 
ATOM     33  C   UNL     1      21.863  60.296  28.716  0.00  0.00    +0.075 A 
ATOM     34  C   UNL     1      21.227  59.841  29.968  0.00  0.00    +0.202 C 
ATOM     35  O   UNL     1      21.658  58.808  30.474  0.00  0.00    -0.286 OA
ATOM     36  O   UNL     1      19.644  62.989  27.882  0.00  0.00    -0.287 OA
ATOM     37  C   UNL     1      20.101  60.603  30.547  0.00  0.00    +0.075 A 
ATOM     38  C   UNL     1      19.532  60.257  31.781  0.00  0.00    +0.129 A 
ATOM     41  C   UNL     1      18.484  61.010  32.316  0.00  0.00    +0.049 A 
ATOM     42  C   UNL     1      17.987  62.117  31.625  0.00  0.00    -0.046 A 
ATOM     43  C   UNL     1      16.882  62.936  32.225  0.00  0.00    +0.044 C 
BRANCH  30  31
ATOM     31  O   UNL     1      23.540  58.561  28.888  0.00  0.00    -0.506 OA
ATOM     32  H   UNL     1      24.522  58.675  28.862  0.00  0.00    +0.292 HD
ENDBRANCH  30  31
BRANCH  38  39
ATOM     39  O   UNL     1      19.996  59.187  32.492  0.00  0.00    -0.506 OA
ATOM     40  H   UNL     1      19.561  59.135  33.358  0.00  0.00    +0.292 HD
ENDBRANCH  38  39
ENDBRANCH   8   7
BRANCH  13  14
ATOM     14  O   UNL     1      23.785  55.775  22.327  0.00  0.00    -0.506 OA
ATOM     15  H   UNL     1      23.979  54.840  22.496  0.00  0.00    +0.292 HD
ENDBRANCH  13  14
BRANCH  21  25
ATOM     25  O   UNL     1      27.998  58.758  22.734  0.00  0.00    -0.506 OA
ATOM     26  H   UNL     1      28.636  59.417  22.371  0.00  0.00    +0.292 HD
ENDBRANCH  21  25
BRANCH   8  28
ATOM     28  O   UNL     1      25.107  57.974  27.015  0.00  0.00    -0.375 OA
ATOM     29  H   UNL     1      24.947  57.077  26.667  0.00  0.00    +0.211 HD
ENDBRANCH   8  28
TORSDOF 6
ENDMDL
MODEL 4
REMARK VINA RESULT:    -9.005      2.652      8.376
REMARK INTER + INTRA:         -11.577
REMARK INTER:                 -10.889
REMARK INTRA:                  -0.687
REMARK UNBOUND:                -0.729
REMARK  Name = C:\Users\HP\Downloads\Anthraquinone_pdb\AD42.pdb
REMARK  8 active torsions:
REMARK  status: ('A' for Active; 'I' for Inactive)
REMARK    1  A    between atoms: C_3  and  C_4
REMARK    2  A    between atoms: C_6  and  O_7
REMARK    3  A    between atoms: C_16  and  O_17
REMARK    4  A    between atoms: C_18  and  C_19
REMARK    5  A    between atoms: C_19  and  O_20
REMARK    6  A    between atoms: C_28  and  C_29
REMARK    7  A    between atoms: C_31  and  O_32
REMARK    8  A    between atoms: C_33  and  O_34
REMARK                            x       y       z     vdW  Elec       q    Type
REMARK                         _______ _______ _______ _____ _____    ______ ____
ROOT
ATOM      8  C   UNL     1      23.711  58.544  26.940  0.00  0.00    +0.146 C 
ATOM      9  C   UNL     1      23.037  58.072  25.650  0.00  0.00    +0.008 A 
ATOM     10  C   UNL     1      21.922  57.200  25.717  0.00  0.00    +0.011 A 
ATOM     11  C   UNL     1      21.296  56.698  24.578  0.00  0.00    -0.047 A 
ATOM     12  C   UNL     1      21.838  57.010  23.334  0.00  0.00    +0.049 A 
ATOM     13  C   UNL     1      22.965  57.838  23.240  0.00  0.00    +0.128 A 
ATOM     16  C   UNL     1      20.082  55.826  24.701  0.00  0.00    +0.044 C 
ATOM     17  C   UNL     1      23.574  58.384  24.392  0.00  0.00    +0.070 A 
ATOM     18  C   UNL     1      24.787  59.243  24.314  0.00  0.00    +0.201 C 
ATOM     19  O   UNL     1      25.404  59.420  23.268  0.00  0.00    -0.286 OA
ATOM     20  C   UNL     1      25.277  59.944  25.530  0.00  0.00    +0.070 A 
ATOM     21  C   UNL     1      26.381  60.813  25.440  0.00  0.00    +0.128 A 
ATOM     22  C   UNL     1      26.884  61.454  26.568  0.00  0.00    +0.046 A 
ATOM     23  C   UNL     1      26.279  61.251  27.802  0.00  0.00    +0.004 A 
ATOM     24  C   UNL     1      25.188  60.384  27.908  0.00  0.00    +0.008 A 
ATOM     27  C   UNL     1      24.679  59.702  26.778  0.00  0.00    +0.007 A 
ENDROOT
BRANCH   8   7
ATOM      1  C   UNL     1      18.765  61.379  32.644  0.00  0.00    +0.016 A 
ATOM      2  C   UNL     1      19.507  61.037  31.504  0.00  0.00    +0.037 A 
ATOM      3  C   UNL     1      20.456  59.904  31.581  0.00  0.00    +0.195 C 
ATOM      4  C   UNL     1      21.162  59.468  30.361  0.00  0.00    +0.037 A 
ATOM      5  C   UNL     1      22.039  58.374  30.408  0.00  0.00    +0.013 A 
ATOM      6  C   UNL     1      22.773  58.008  29.273  0.00  0.00    +0.011 A 
ATOM      7  C   UNL     1      22.657  58.736  28.068  0.00  0.00    +0.035 A 
ATOM     30  C   UNL     1      21.696  59.762  28.021  0.00  0.00    +0.135 A 
ATOM     33  C   UNL     1      20.983  60.158  29.170  0.00  0.00    +0.075 A 
ATOM     34  C   UNL     1      20.126  61.359  29.127  0.00  0.00    +0.202 C 
ATOM     35  O   UNL     1      20.115  62.005  28.083  0.00  0.00    -0.286 OA
ATOM     36  O   UNL     1      20.659  59.335  32.647  0.00  0.00    -0.287 OA
ATOM     37  C   UNL     1      19.347  61.756  30.318  0.00  0.00    +0.075 A 
ATOM     38  C   UNL     1      18.451  62.835  30.290  0.00  0.00    +0.129 A 
ATOM     41  C   UNL     1      17.711  63.173  31.425  0.00  0.00    +0.049 A 
ATOM     42  C   UNL     1      17.857  62.442  32.606  0.00  0.00    -0.046 A 
ATOM     43  C   UNL     1      17.032  62.796  33.809  0.00  0.00    +0.044 C 
BRANCH  30  31
ATOM     31  O   UNL     1      21.497  60.391  26.817  0.00  0.00    -0.506 OA
ATOM     32  H   UNL     1      20.553  60.273  26.550  0.00  0.00    +0.292 HD
ENDBRANCH  30  31
BRANCH  38  39
ATOM     39  O   UNL     1      18.273  63.569  29.152  0.00  0.00    -0.506 OA
ATOM     40  H   UNL     1      19.127  63.856  28.792  0.00  0.00    +0.292 HD
ENDBRANCH  38  39
ENDBRANCH   8   7
BRANCH  13  14
ATOM     14  O   UNL     1      23.462  58.098  21.995  0.00  0.00    -0.506 OA
ATOM     15  H   UNL     1      23.970  57.335  21.678  0.00  0.00    +0.292 HD
ENDBRANCH  13  14
BRANCH  21  25
ATOM     25  O   UNL     1      27.053  61.056  24.269  0.00  0.00    -0.506 OA
ATOM     26  H   UNL     1      26.814  60.332  23.642  0.00  0.00    +0.292 HD
ENDBRANCH  21  25
BRANCH   8  28
ATOM     28  O   UNL     1      24.621  57.457  27.173  0.00  0.00    -0.375 OA
ATOM     29  H   UNL     1      24.087  56.704  27.487  0.00  0.00    +0.211 HD
ENDBRANCH   8  28
TORSDOF 6
ENDMDL
MODEL 5
REMARK VINA RESULT:    -8.906      3.315      8.419
REMARK INTER + INTRA:         -11.458
REMARK INTER:                 -10.591
REMARK INTRA:                  -0.867
REMARK UNBOUND:                -0.729
REMARK  Name = C:\Users\HP\Downloads\Anthraquinone_pdb\AD42.pdb
REMARK  8 active torsions:
REMARK  status: ('A' for Active; 'I' for Inactive)
REMARK    1  A    between atoms: C_3  and  C_4
REMARK    2  A    between atoms: C_6  and  O_7
REMARK    3  A    between atoms: C_16  and  O_17
REMARK    4  A    between atoms: C_18  and  C_19
REMARK    5  A    between atoms: C_19  and  O_20
REMARK    6  A    between atoms: C_28  and  C_29
REMARK    7  A    between atoms: C_31  and  O_32
REMARK    8  A    between atoms: C_33  and  O_34
REMARK                            x       y       z     vdW  Elec       q    Type
REMARK                         _______ _______ _______ _____ _____    ______ ____
ROOT
ATOM      8  C   UNL     1      23.758  60.839  26.524  0.00  0.00    +0.146 C 
ATOM      9  C   UNL     1      25.141  61.234  27.045  0.00  0.00    +0.008 A 
ATOM     10  C   UNL     1      25.253  62.028  28.213  0.00  0.00    +0.011 A 
ATOM     11  C   UNL     1      26.481  62.460  28.709  0.00  0.00    -0.047 A 
ATOM     12  C   UNL     1      27.630  62.159  27.982  0.00  0.00    +0.049 A 
ATOM     13  C   UNL     1      27.545  61.410  26.802  0.00  0.00    +0.128 A 
ATOM     16  C   UNL     1      26.550  63.248  29.983  0.00  0.00    +0.044 C 
ATOM     17  C   UNL     1      26.304  60.932  26.322  0.00  0.00    +0.070 A 
ATOM     18  C   UNL     1      26.191  60.159  25.055  0.00  0.00    +0.201 C 
ATOM     19  O   UNL     1      27.138  60.002  24.290  0.00  0.00    -0.286 OA
ATOM     20  C   UNL     1      24.898  59.520  24.691  0.00  0.00    +0.070 A 
ATOM     21  C   UNL     1      24.811  58.728  23.531  0.00  0.00    +0.128 A 
ATOM     22  C   UNL     1      23.606  58.149  23.146  0.00  0.00    +0.046 A 
ATOM     23  C   UNL     1      22.472  58.336  23.926  0.00  0.00    +0.004 A 
ATOM     24  C   UNL     1      22.542  59.128  25.076  0.00  0.00    +0.008 A 
ATOM     27  C   UNL     1      23.750  59.747  25.469  0.00  0.00    +0.007 A 
ENDROOT
BRANCH   8   7
ATOM      1  C   UNL     1      18.786  61.503  32.839  0.00  0.00    +0.016 A 
ATOM      2  C   UNL     1      19.493  61.532  31.628  0.00  0.00    +0.037 A 
ATOM      3  C   UNL     1      20.660  60.638  31.458  0.00  0.00    +0.195 C 
ATOM      4  C   UNL     1      21.344  60.583  30.152  0.00  0.00    +0.037 A 
ATOM      5  C   UNL     1      22.430  59.715  29.963  0.00  0.00    +0.013 A 
ATOM      6  C   UNL     1      23.134  59.719  28.753  0.00  0.00    +0.011 A 
ATOM      7  C   UNL     1      22.777  60.600  27.707  0.00  0.00    +0.035 A 
ATOM     30  C   UNL     1      21.623  61.384  27.888  0.00  0.00    +0.135 A 
ATOM     33  C   UNL     1      20.934  61.411  29.117  0.00  0.00    +0.075 A 
ATOM     34  C   UNL     1      19.845  62.385  29.329  0.00  0.00    +0.202 C 
ATOM     35  O   UNL     1      19.619  63.183  28.423  0.00  0.00    -0.286 OA
ATOM     36  O   UNL     1      21.058  59.953  32.392  0.00  0.00    -0.287 OA
ATOM     37  C   UNL     1      19.095  62.392  30.602  0.00  0.00    +0.075 A 
ATOM     38  C   UNL     1      17.995  63.237  30.808  0.00  0.00    +0.129 A 
ATOM     41  C   UNL     1      17.290  63.205  32.014  0.00  0.00    +0.049 A 
ATOM     42  C   UNL     1      17.676  62.332  33.033  0.00  0.00    -0.046 A 
ATOM     43  C   UNL     1      16.891  62.286  34.312  0.00  0.00    +0.044 C 
BRANCH  30  31
ATOM     31  O   UNL     1      21.205  62.151  26.829  0.00  0.00    -0.506 OA
ATOM     32  H   UNL     1      20.221  62.241  26.870  0.00  0.00    +0.292 HD
ENDBRANCH  30  31
BRANCH  38  39
ATOM     39  O   UNL     1      17.581  64.099  29.832  0.00  0.00    -0.506 OA
ATOM     40  H   UNL     1      17.871  63.793  28.959  0.00  0.00    +0.292 HD
ENDBRANCH  38  39
ENDBRANCH   8   7
BRANCH  13  14
ATOM     14  O   UNL     1      28.702  61.157  26.122  0.00  0.00    -0.506 OA
ATOM     15  H   UNL     1      28.499  60.767  25.258  0.00  0.00    +0.292 HD
ENDBRANCH  13  14
BRANCH  21  25
ATOM     25  O   UNL     1      25.872  58.507  22.690  0.00  0.00    -0.506 OA
ATOM     26  H   UNL     1      25.500  58.285  21.804  0.00  0.00    +0.292 HD
ENDBRANCH  21  25
BRANCH   8  28
ATOM     28  O   UNL     1      23.438  61.992  25.728  0.00  0.00    -0.375 OA
ATOM     29  H   UNL     1      24.158  62.636  25.863  0.00  0.00    +0.211 HD
ENDBRANCH   8  28
TORSDOF 6
ENDMDL
MODEL 6
REMARK VINA RESULT:    -8.869      3.820      7.857
REMARK INTER + INTRA:         -11.413
REMARK INTER:                 -11.495
REMARK INTRA:                   0.081
REMARK UNBOUND:                -0.729
REMARK  Name = C:\Users\HP\Downloads\Anthraquinone_pdb\AD42.pdb
REMARK  8 active torsions:
REMARK  status: ('A' for Active; 'I' for Inactive)
REMARK    1  A    between atoms: C_3  and  C_4
REMARK    2  A    between atoms: C_6  and  O_7
REMARK    3  A    between atoms: C_16  and  O_17
REMARK    4  A    between atoms: C_18  and  C_19
REMARK    5  A    between atoms: C_19  and  O_20
REMARK    6  A    between atoms: C_28  and  C_29
REMARK    7  A    between atoms: C_31  and  O_32
REMARK    8  A    between atoms: C_33  and  O_34
REMARK                            x       y       z     vdW  Elec       q    Type
REMARK                         _______ _______ _______ _____ _____    ______ ____
ROOT
ATOM      8  C   UNL     1      20.243  58.065  28.687  0.00  0.00    +0.146 C 
ATOM      9  C   UNL     1      21.514  57.912  29.525  0.00  0.00    +0.008 A 
ATOM     10  C   UNL     1      21.900  58.946  30.413  0.00  0.00    +0.011 A 
ATOM     11  C   UNL     1      23.071  58.887  31.166  0.00  0.00    -0.047 A 
ATOM     12  C   UNL     1      23.924  57.803  30.976  0.00  0.00    +0.049 A 
ATOM     13  C   UNL     1      23.586  56.785  30.075  0.00  0.00    +0.128 A 
ATOM     16  C   UNL     1      23.405  59.980  32.136  0.00  0.00    +0.044 C 
ATOM     17  C   UNL     1      22.377  56.822  29.344  0.00  0.00    +0.070 A 
ATOM     18  C   UNL     1      22.015  55.764  28.362  0.00  0.00    +0.201 C 
ATOM     19  O   UNL     1      22.793  54.874  28.032  0.00  0.00    -0.286 OA
ATOM     20  C   UNL     1      20.655  55.747  27.760  0.00  0.00    +0.070 A 
ATOM     21  C   UNL     1      20.288  54.706  26.887  0.00  0.00    +0.128 A 
ATOM     22  C   UNL     1      19.036  54.684  26.281  0.00  0.00    +0.046 A 
ATOM     23  C   UNL     1      18.122  55.695  26.553  0.00  0.00    +0.004 A 
ATOM     24  C   UNL     1      18.476  56.740  27.410  0.00  0.00    +0.008 A 
ATOM     27  C   UNL     1      19.753  56.795  28.015  0.00  0.00    +0.007 A 
ENDROOT
BRANCH   8   7
ATOM      1  C   UNL     1      16.095  62.711  33.812  0.00  0.00    +0.016 A 
ATOM      2  C   UNL     1      16.926  62.108  32.855  0.00  0.00    +0.037 A 
ATOM      3  C   UNL     1      16.710  60.685  32.514  0.00  0.00    +0.195 C 
ATOM      4  C   UNL     1      17.507  60.071  31.434  0.00  0.00    +0.037 A 
ATOM      5  C   UNL     1      17.291  58.733  31.073  0.00  0.00    +0.013 A 
ATOM      6  C   UNL     1      18.099  58.123  30.107  0.00  0.00    +0.011 A 
ATOM      7  C   UNL     1      19.152  58.833  29.487  0.00  0.00    +0.035 A 
ATOM     30  C   UNL     1      19.278  60.201  29.793  0.00  0.00    +0.135 A 
ATOM     33  C   UNL     1      18.492  60.809  30.792  0.00  0.00    +0.075 A 
ATOM     34  C   UNL     1      18.782  62.192  31.217  0.00  0.00    +0.202 C 
ATOM     35  O   UNL     1      19.753  62.745  30.708  0.00  0.00    -0.286 OA
ATOM     36  O   UNL     1      15.883  60.018  33.123  0.00  0.00    -0.287 OA
ATOM     37  C   UNL     1      17.938  62.847  32.237  0.00  0.00    +0.075 A 
ATOM     38  C   UNL     1      18.123  64.188  32.601  0.00  0.00    +0.129 A 
ATOM     41  C   UNL     1      17.293  64.788  33.551  0.00  0.00    +0.049 A 
ATOM     42  C   UNL     1      16.269  64.055  34.156  0.00  0.00    -0.046 A 
ATOM     43  C   UNL     1      15.365  64.720  35.153  0.00  0.00    +0.044 C 
BRANCH  30  31
ATOM     31  O   UNL     1      20.221  60.921  29.103  0.00  0.00    -0.506 OA
ATOM     32  H   UNL     1      19.787  61.714  28.704  0.00  0.00    +0.292 HD
ENDBRANCH  30  31
BRANCH  38  39
ATOM     39  O   UNL     1      19.107  64.941  32.025  0.00  0.00    -0.506 OA
ATOM     40  H   UNL     1      18.835  65.248  31.147  0.00  0.00    +0.292 HD
ENDBRANCH  38  39
ENDBRANCH   8   7
BRANCH  13  14
ATOM     14  O   UNL     1      24.468  55.754  29.919  0.00  0.00    -0.506 OA
ATOM     15  H   UNL     1      25.375  56.096  29.901  0.00  0.00    +0.292 HD
ENDBRANCH  13  14
BRANCH  21  25
ATOM     25  O   UNL     1      21.132  53.680  26.545  0.00  0.00    -0.506 OA
ATOM     26  H   UNL     1      21.476  53.295  27.386  0.00  0.00    +0.292 HD
ENDBRANCH  21  25
BRANCH   8  28
ATOM     28  O   UNL     1      20.757  58.791  27.560  0.00  0.00    -0.375 OA
ATOM     29  H   UNL     1      19.996  59.225  27.132  0.00  0.00    +0.211 HD
ENDBRANCH   8  28
TORSDOF 6
ENDMDL
MODEL 7
REMARK VINA RESULT:    -8.289     17.399     21.416
REMARK INTER + INTRA:         -10.714
REMARK INTER:                  -9.983
REMARK INTRA:                  -0.731
REMARK UNBOUND:                -0.729
REMARK  Name = C:\Users\HP\Downloads\Anthraquinone_pdb\AD42.pdb
REMARK  8 active torsions:
REMARK  status: ('A' for Active; 'I' for Inactive)
REMARK    1  A    between atoms: C_3  and  C_4
REMARK    2  A    between atoms: C_6  and  O_7
REMARK    3  A    between atoms: C_16  and  O_17
REMARK    4  A    between atoms: C_18  and  C_19
REMARK    5  A    between atoms: C_19  and  O_20
REMARK    6  A    between atoms: C_28  and  C_29
REMARK    7  A    between atoms: C_31  and  O_32
REMARK    8  A    between atoms: C_33  and  O_34
REMARK                            x       y       z     vdW  Elec       q    Type
REMARK                         _______ _______ _______ _____ _____    ______ ____
ROOT
ATOM      8  C   UNL     1      14.988  39.658  22.306  0.00  0.00    +0.146 C 
ATOM      9  C   UNL     1      13.968  38.627  21.818  0.00  0.00    +0.008 A 
ATOM     10  C   UNL     1      13.509  37.618  22.701  0.00  0.00    +0.011 A 
ATOM     11  C   UNL     1      12.619  36.624  22.302  0.00  0.00    -0.047 A 
ATOM     12  C   UNL     1      12.229  36.583  20.966  0.00  0.00    +0.049 A 
ATOM     13  C   UNL     1      12.699  37.544  20.062  0.00  0.00    +0.128 A 
ATOM     16  C   UNL     1      12.117  35.615  23.291  0.00  0.00    +0.044 C 
ATOM     17  C   UNL     1      13.567  38.580  20.475  0.00  0.00    +0.070 A 
ATOM     18  C   UNL     1      14.098  39.593  19.523  0.00  0.00    +0.201 C 
ATOM     19  O   UNL     1      13.924  39.515  18.311  0.00  0.00    -0.286 OA
ATOM     20  C   UNL     1      14.852  40.768  20.036  0.00  0.00    +0.070 A 
ATOM     21  C   UNL     1      15.291  41.763  19.143  0.00  0.00    +0.128 A 
ATOM     22  C   UNL     1      16.030  42.854  19.590  0.00  0.00    +0.046 A 
ATOM     23  C   UNL     1      16.324  42.978  20.942  0.00  0.00    +0.004 A 
ATOM     24  C   UNL     1      15.903  41.992  21.839  0.00  0.00    +0.008 A 
ATOM     27  C   UNL     1      15.175  40.862  21.401  0.00  0.00    +0.007 A 
ENDROOT
BRANCH   8   7
ATOM      1  C   UNL     1      13.578  43.260  29.383  0.00  0.00    +0.016 A 
ATOM      2  C   UNL     1      13.610  42.727  28.086  0.00  0.00    +0.037 A 
ATOM      3  C   UNL     1      14.679  41.766  27.732  0.00  0.00    +0.195 C 
ATOM      4  C   UNL     1      14.660  41.120  26.406  0.00  0.00    +0.037 A 
ATOM      5  C   UNL     1      15.644  40.180  26.068  0.00  0.00    +0.013 A 
ATOM      6  C   UNL     1      15.679  39.625  24.783  0.00  0.00    +0.011 A 
ATOM      7  C   UNL     1      14.737  40.007  23.801  0.00  0.00    +0.035 A 
ATOM     30  C   UNL     1      13.702  40.873  24.200  0.00  0.00    +0.135 A 
ATOM     33  C   UNL     1      13.685  41.462  25.480  0.00  0.00    +0.075 A 
ATOM     34  C   UNL     1      12.692  42.508  25.796  0.00  0.00    +0.202 C 
ATOM     35  O   UNL     1      11.943  42.864  24.890  0.00  0.00    -0.286 OA
ATOM     36  O   UNL     1      15.573  41.511  28.529  0.00  0.00    -0.287 OA
ATOM     37  C   UNL     1      12.646  43.102  27.148  0.00  0.00    +0.075 A 
ATOM     38  C   UNL     1      11.660  44.029  27.515  0.00  0.00    +0.129 A 
ATOM     41  C   UNL     1      11.627  44.556  28.808  0.00  0.00    +0.049 A 
ATOM     42  C   UNL     1      12.581  44.169  29.752  0.00  0.00    -0.046 A 
ATOM     43  C   UNL     1      12.515  44.719  31.147  0.00  0.00    +0.044 C 
BRANCH  30  31
ATOM     31  O   UNL     1      12.718  41.150  23.283  0.00  0.00    -0.506 OA
ATOM     32  H   UNL     1      11.937  40.576  23.472  0.00  0.00    +0.292 HD
ENDBRANCH  30  31
BRANCH  38  39
ATOM     39  O   UNL     1      10.705  44.427  26.623  0.00  0.00    -0.506 OA
ATOM     40  H   UNL     1       9.961  44.847  27.081  0.00  0.00    +0.292 HD
ENDBRANCH  38  39
ENDBRANCH   8   7
BRANCH  13  14
ATOM     14  O   UNL     1      12.296  37.445  18.761  0.00  0.00    -0.506 OA
ATOM     15  H   UNL     1      12.465  36.549  18.430  0.00  0.00    +0.292 HD
ENDBRANCH  13  14
BRANCH  21  25
ATOM     25  O   UNL     1      15.064  41.712  17.791  0.00  0.00    -0.506 OA
ATOM     26  H   UNL     1      14.446  40.961  17.629  0.00  0.00    +0.292 HD
ENDBRANCH  21  25
BRANCH   8  28
ATOM     28  O   UNL     1      16.213  38.946  22.072  0.00  0.00    -0.375 OA
ATOM     29  H   UNL     1      16.057  38.360  21.308  0.00  0.00    +0.211 HD
ENDBRANCH   8  28
TORSDOF 6
ENDMDL
MODEL 8
REMARK VINA RESULT:    -8.208     27.689     31.357
REMARK INTER + INTRA:         -10.617
REMARK INTER:                  -9.791
REMARK INTRA:                  -0.826
REMARK UNBOUND:                -0.729
REMARK  Name = C:\Users\HP\Downloads\Anthraquinone_pdb\AD42.pdb
REMARK  8 active torsions:
REMARK  status: ('A' for Active; 'I' for Inactive)
REMARK    1  A    between atoms: C_3  and  C_4
REMARK    2  A    between atoms: C_6  and  O_7
REMARK    3  A    between atoms: C_16  and  O_17
REMARK    4  A    between atoms: C_18  and  C_19
REMARK    5  A    between atoms: C_19  and  O_20
REMARK    6  A    between atoms: C_28  and  C_29
REMARK    7  A    between atoms: C_31  and  O_32
REMARK    8  A    between atoms: C_33  and  O_34
REMARK                            x       y       z     vdW  Elec       q    Type
REMARK                         _______ _______ _______ _____ _____    ______ ____
ROOT
ATOM      8  C   UNL     1      13.698  66.302  -2.106  0.00  0.00    +0.146 C 
ATOM      9  C   UNL     1      14.580  65.056  -2.217  0.00  0.00    +0.008 A 
ATOM     10  C   UNL     1      15.960  65.140  -1.905  0.00  0.00    +0.011 A 
ATOM     11  C   UNL     1      16.822  64.054  -2.033  0.00  0.00    -0.047 A 
ATOM     12  C   UNL     1      16.317  62.867  -2.558  0.00  0.00    +0.049 A 
ATOM     13  C   UNL     1      14.966  62.768  -2.913  0.00  0.00    +0.128 A 
ATOM     16  C   UNL     1      18.262  64.178  -1.633  0.00  0.00    +0.044 C 
ATOM     17  C   UNL     1      14.079  63.856  -2.741  0.00  0.00    +0.070 A 
ATOM     18  C   UNL     1      12.647  63.778  -3.138  0.00  0.00    +0.201 C 
ATOM     19  O   UNL     1      12.183  62.823  -3.752  0.00  0.00    -0.286 OA
ATOM     20  C   UNL     1      11.715  64.876  -2.766  0.00  0.00    +0.070 A 
ATOM     21  C   UNL     1      10.347  64.769  -3.078  0.00  0.00    +0.128 A 
ATOM     22  C   UNL     1       9.459  65.797  -2.775  0.00  0.00    +0.046 A 
ATOM     23  C   UNL     1       9.923  66.941  -2.138  0.00  0.00    +0.004 A 
ATOM     24  C   UNL     1      11.280  67.065  -1.832  0.00  0.00    +0.008 A 
ATOM     27  C   UNL     1      12.203  66.044  -2.156  0.00  0.00    +0.007 A 
ENDROOT
BRANCH   8   7
ATOM      1  C   UNL     1      17.831  70.644   3.290  0.00  0.00    +0.016 A 
ATOM      2  C   UNL     1      17.202  70.044   2.189  0.00  0.00    +0.037 A 
ATOM      3  C   UNL     1      16.211  68.971   2.427  0.00  0.00    +0.195 C 
ATOM      4  C   UNL     1      15.467  68.407   1.284  0.00  0.00    +0.037 A 
ATOM      5  C   UNL     1      14.499  67.415   1.496  0.00  0.00    +0.013 A 
ATOM      6  C   UNL     1      13.849  66.819   0.408  0.00  0.00    +0.011 A 
ATOM      7  C   UNL     1      14.161  67.193  -0.918  0.00  0.00    +0.035 A 
ATOM     30  C   UNL     1      15.059  68.262  -1.094  0.00  0.00    +0.135 A 
ATOM     33  C   UNL     1      15.743  68.838  -0.006  0.00  0.00    +0.075 A 
ATOM     34  C   UNL     1      16.815  69.824  -0.248  0.00  0.00    +0.202 C 
ATOM     35  O   UNL     1      17.106  70.062  -1.417  0.00  0.00    -0.286 OA
ATOM     36  O   UNL     1      16.013  68.549   3.560  0.00  0.00    -0.287 OA
ATOM     37  C   UNL     1      17.509  70.459   0.891  0.00  0.00    +0.075 A 
ATOM     38  C   UNL     1      18.467  71.466   0.705  0.00  0.00    +0.129 A 
ATOM     41  C   UNL     1      19.090  72.065   1.802  0.00  0.00    +0.049 A 
ATOM     42  C   UNL     1      18.770  71.664   3.101  0.00  0.00    -0.046 A 
ATOM     43  C   UNL     1      19.424  72.337   4.273  0.00  0.00    +0.044 C 
BRANCH  30  31
ATOM     31  O   UNL     1      15.272  68.707  -2.376  0.00  0.00    -0.506 OA
ATOM     32  H   UNL     1      14.542  68.373  -2.953  0.00  0.00    +0.292 HD
ENDBRANCH  30  31
BRANCH  38  39
ATOM     39  O   UNL     1      18.801  71.893  -0.548  0.00  0.00    -0.506 OA
ATOM     40  H   UNL     1      18.071  72.390  -0.948  0.00  0.00    +0.292 HD
ENDBRANCH  38  39
ENDBRANCH   8   7
BRANCH  13  14
ATOM     14  O   UNL     1      14.530  61.585  -3.436  0.00  0.00    -0.506 OA
ATOM     15  H   UNL     1      14.774  60.854  -2.847  0.00  0.00    +0.292 HD
ENDBRANCH  13  14
BRANCH  21  25
ATOM     25  O   UNL     1       9.806  63.687  -3.724  0.00  0.00    -0.506 OA
ATOM     26  H   UNL     1       9.276  63.187  -3.058  0.00  0.00    +0.292 HD
ENDBRANCH  21  25
BRANCH   8  28
ATOM     28  O   UNL     1      13.917  66.894  -3.397  0.00  0.00    -0.375 OA
ATOM     29  H   UNL     1      13.664  67.833  -3.323  0.00  0.00    +0.211 HD
ENDBRANCH   8  28
TORSDOF 6
ENDMDL
MODEL 9
REMARK VINA RESULT:    -8.077     22.959     25.864
REMARK INTER + INTRA:         -10.459
REMARK INTER:                  -9.604
REMARK INTRA:                  -0.855
REMARK UNBOUND:                -0.729
REMARK  Name = C:\Users\HP\Downloads\Anthraquinone_pdb\AD42.pdb
REMARK  8 active torsions:
REMARK  status: ('A' for Active; 'I' for Inactive)
REMARK    1  A    between atoms: C_3  and  C_4
REMARK    2  A    between atoms: C_6  and  O_7
REMARK    3  A    between atoms: C_16  and  O_17
REMARK    4  A    between atoms: C_18  and  C_19
REMARK    5  A    between atoms: C_19  and  O_20
REMARK    6  A    between atoms: C_28  and  C_29
REMARK    7  A    between atoms: C_31  and  O_32
REMARK    8  A    between atoms: C_33  and  O_34
REMARK                            x       y       z     vdW  Elec       q    Type
REMARK                         _______ _______ _______ _____ _____    ______ ____
ROOT
ATOM      8  C   UNL     1       5.013  48.140  12.090  0.00  0.00    +0.146 C 
ATOM      9  C   UNL     1       3.849  49.121  11.935  0.00  0.00    +0.008 A 
ATOM     10  C   UNL     1       2.737  49.037  12.808  0.00  0.00    +0.011 A 
ATOM     11  C   UNL     1       1.626  49.870  12.687  0.00  0.00    -0.047 A 
ATOM     12  C   UNL     1       1.583  50.763  11.620  0.00  0.00    +0.049 A 
ATOM     13  C   UNL     1       2.652  50.839  10.717  0.00  0.00    +0.128 A 
ATOM     16  C   UNL     1       0.501  49.782  13.674  0.00  0.00    +0.044 C 
ATOM     17  C   UNL     1       3.799  50.027  10.865  0.00  0.00    +0.070 A 
ATOM     18  C   UNL     1       4.931  50.074   9.900  0.00  0.00    +0.201 C 
ATOM     19  O   UNL     1       4.883  50.717   8.856  0.00  0.00    -0.286 OA
ATOM     20  C   UNL     1       6.190  49.343  10.200  0.00  0.00    +0.070 A 
ATOM     21  C   UNL     1       7.286  49.446   9.324  0.00  0.00    +0.128 A 
ATOM     22  C   UNL     1       8.464  48.744   9.560  0.00  0.00    +0.046 A 
ATOM     23  C   UNL     1       8.571  47.941  10.689  0.00  0.00    +0.004 A 
ATOM     24  C   UNL     1       7.488  47.820  11.563  0.00  0.00    +0.008 A 
ATOM     27  C   UNL     1       6.273  48.505  11.326  0.00  0.00    +0.007 A 
ENDROOT
BRANCH   8   7
ATOM      1  C   UNL     1       4.578  45.393  19.660  0.00  0.00    +0.016 A 
ATOM      2  C   UNL     1       4.658  45.637  18.281  0.00  0.00    +0.037 A 
ATOM      3  C   UNL     1       4.861  47.025  17.810  0.00  0.00    +0.195 C 
ATOM      4  C   UNL     1       5.053  47.279  16.369  0.00  0.00    +0.037 A 
ATOM      5  C   UNL     1       5.283  48.583  15.909  0.00  0.00    +0.013 A 
ATOM      6  C   UNL     1       5.383  48.841  14.536  0.00  0.00    +0.011 A 
ATOM      7  C   UNL     1       5.243  47.801  13.590  0.00  0.00    +0.035 A 
ATOM     30  C   UNL     1       5.117  46.489  14.085  0.00  0.00    +0.135 A 
ATOM     33  C   UNL     1       4.978  46.230  15.462  0.00  0.00    +0.075 A 
ATOM     34  C   UNL     1       4.657  44.866  15.927  0.00  0.00    +0.202 C 
ATOM     35  O   UNL     1       4.468  44.010  15.067  0.00  0.00    -0.286 OA
ATOM     36  O   UNL     1       4.867  47.956  18.605  0.00  0.00    -0.287 OA
ATOM     37  C   UNL     1       4.547  44.582  17.372  0.00  0.00    +0.075 A 
ATOM     38  C   UNL     1       4.336  43.283  17.857  0.00  0.00    +0.129 A 
ATOM     41  C   UNL     1       4.260  43.041  19.230  0.00  0.00    +0.049 A 
ATOM     42  C   UNL     1       4.389  44.093  20.140  0.00  0.00    -0.046 A 
ATOM     43  C   UNL     1       4.337  43.814  21.614  0.00  0.00    +0.044 C 
BRANCH  30  31
ATOM     31  O   UNL     1       5.102  45.465  13.170  0.00  0.00    -0.506 OA
ATOM     32  H   UNL     1       5.250  44.612  13.647  0.00  0.00    +0.292 HD
ENDBRANCH  30  31
BRANCH  38  39
ATOM     39  O   UNL     1       4.214  42.227  17.000  0.00  0.00    -0.506 OA
ATOM     40  H   UNL     1       3.281  41.994  16.872  0.00  0.00    +0.292 HD
ENDBRANCH  38  39
ENDBRANCH   8   7
BRANCH  13  14
ATOM     14  O   UNL     1       2.548  51.723   9.681  0.00  0.00    -0.506 OA
ATOM     15  H   UNL     1       2.966  52.564   9.922  0.00  0.00    +0.292 HD
ENDBRANCH  13  14
BRANCH  21  25
ATOM     25  O   UNL     1       7.262  50.197   8.176  0.00  0.00    -0.506 OA
ATOM     26  H   UNL     1       6.488  50.805   8.243  0.00  0.00    +0.292 HD
ENDBRANCH  21  25
BRANCH   8  28
ATOM     28  O   UNL     1       4.530  47.035  11.311  0.00  0.00    -0.375 OA
ATOM     29  H   UNL     1       3.817  46.615  11.828  0.00  0.00    +0.211 HD
ENDBRANCH   8  28
TORSDOF 6
ENDMDL
