MODEL 1
REMARK VINA RESULT:    -9.064      0.000      0.000
REMARK INTER + INTRA:         -11.007
REMARK INTER:                 -10.654
REMARK INTRA:                  -0.353
REMARK UNBOUND:                -0.353
REMARK  Name = C:\Users\HP\Downloads\Anthraquinone_pdb\AD48.pdb
REMARK  7 active torsions:
REMARK  status: ('A' for Active; 'I' for Inactive)
REMARK    1  A    between atoms: O_1  and  C_16
REMARK    2  A    between atoms: O_2  and  C_23
REMARK    3  A    between atoms: O_7  and  C_31
REMARK    4  A    between atoms: O_8  and  C_32
REMARK    5  A    between atoms: C_9  and  C_11
REMARK    6  A    between atoms: C_14  and  C_29
REMARK    7  A    between atoms: C_34  and  C_38
REMARK                            x       y       z     vdW  Elec       q    Type
REMARK                         _______ _______ _______ _____ _____    ______ ____
ROOT
ATOM      3  C   UNL     1      20.514  59.985  29.157  0.00  0.00    +0.136 A 
ATOM      4  C   UNL     1      20.100  60.613  30.336  0.00  0.00    +0.075 A 
ATOM      5  C   UNL     1      19.345  61.881  30.262  0.00  0.00    +0.202 C 
ATOM      6  C   UNL     1      18.915  62.534  31.516  0.00  0.00    +0.075 A 
ATOM      7  C   UNL     1      18.200  63.736  31.460  0.00  0.00    +0.129 A 
ATOM      8  C   UNL     1      17.791  64.360  32.639  0.00  0.00    +0.049 A 
ATOM      9  C   UNL     1      18.092  63.788  33.873  0.00  0.00    -0.046 A 
ATOM     10  C   UNL     1      17.653  64.458  35.131  0.00  0.00    +0.044 C 
ATOM     11  C   UNL     1      18.804  62.589  33.934  0.00  0.00    +0.016 A 
ATOM     14  C   UNL     1      19.217  61.961  32.754  0.00  0.00    +0.037 A 
ATOM     15  C   UNL     1      19.970  60.692  32.828  0.00  0.00    +0.195 C 
ATOM     16  O   UNL     1      20.234  60.188  33.912  0.00  0.00    -0.287 OA
ATOM     17  O   UNL     1      19.078  62.386  29.180  0.00  0.00    -0.286 OA
ATOM     18  C   UNL     1      20.402  60.040  31.574  0.00  0.00    +0.037 A 
ATOM     19  C   UNL     1      21.118  58.838  31.630  0.00  0.00    +0.013 A 
ATOM     20  C   UNL     1      21.529  58.215  30.452  0.00  0.00    +0.013 A 
ATOM     21  C   UNL     1      21.228  58.787  29.217  0.00  0.00    +0.025 A 
ENDROOT
BRANCH  21  22
ATOM     22  C   UNL     1      21.668  58.116  28.010  0.00  0.00    +0.000 A 
ATOM     23  C   UNL     1      22.919  58.480  27.504  0.00  0.00    -0.038 A 
ATOM     24  C   UNL     1      23.772  59.514  28.171  0.00  0.00    +0.044 C 
ATOM     25  C   UNL     1      23.411  57.880  26.346  0.00  0.00    +0.050 A 
ATOM     26  C   UNL     1      22.655  56.912  25.685  0.00  0.00    +0.129 A 
ATOM     27  C   UNL     1      21.401  56.542  26.184  0.00  0.00    +0.075 A 
ATOM     28  C   UNL     1      20.608  55.514  25.479  0.00  0.00    +0.202 C 
ATOM     29  C   UNL     1      19.287  55.132  26.017  0.00  0.00    +0.075 A 
ATOM     30  C   UNL     1      18.526  54.160  25.358  0.00  0.00    +0.128 A 
ATOM     31  C   UNL     1      17.277  53.793  25.860  0.00  0.00    +0.046 A 
ATOM     32  C   UNL     1      16.786  54.392  27.017  0.00  0.00    +0.004 A 
ATOM     33  C   UNL     1      17.541  55.363  27.678  0.00  0.00    +0.012 A 
ATOM     36  C   UNL     1      18.794  55.733  27.177  0.00  0.00    +0.037 A 
ATOM     37  C   UNL     1      19.587  56.761  27.883  0.00  0.00    +0.195 C 
ATOM     38  O   UNL     1      19.112  57.260  28.895  0.00  0.00    -0.287 OA
ATOM     39  O   UNL     1      21.041  54.986  24.462  0.00  0.00    -0.286 OA
ATOM     42  C   UNL     1      20.908  57.142  27.345  0.00  0.00    +0.045 A 
BRANCH  30  34
ATOM     34  O   UNL     1      18.944  53.533  24.221  0.00  0.00    -0.506 OA
ATOM     35  H   UNL     1      19.571  52.824  24.429  0.00  0.00    +0.292 HD
ENDBRANCH  30  34
BRANCH  26  40
ATOM     40  O   UNL     1      23.197  56.367  24.558  0.00  0.00    -0.506 OA
ATOM     41  H   UNL     1      24.019  56.834  24.330  0.00  0.00    +0.292 HD
ENDBRANCH  26  40
ENDBRANCH  21  22
BRANCH   3   1
ATOM      1  O   UNL     1      20.240  60.511  27.925  0.00  0.00    -0.505 OA
ATOM      2  H   UNL     1      20.261  61.479  27.945  0.00  0.00    +0.292 HD
ENDBRANCH   3   1
BRANCH   7  12
ATOM     12  O   UNL     1      17.870  64.351  30.288  0.00  0.00    -0.506 OA
ATOM     13  H   UNL     1      18.256  63.862  29.542  0.00  0.00    +0.292 HD
ENDBRANCH   7  12
TORSDOF 5
ENDMDL
MODEL 2
REMARK VINA RESULT:    -8.853      2.415      4.455
REMARK INTER + INTRA:         -10.758
REMARK INTER:                 -10.577
REMARK INTRA:                  -0.182
REMARK UNBOUND:                -0.353
REMARK  Name = C:\Users\HP\Downloads\Anthraquinone_pdb\AD48.pdb
REMARK  7 active torsions:
REMARK  status: ('A' for Active; 'I' for Inactive)
REMARK    1  A    between atoms: O_1  and  C_16
REMARK    2  A    between atoms: O_2  and  C_23
REMARK    3  A    between atoms: O_7  and  C_31
REMARK    4  A    between atoms: O_8  and  C_32
REMARK    5  A    between atoms: C_9  and  C_11
REMARK    6  A    between atoms: C_14  and  C_29
REMARK    7  A    between atoms: C_34  and  C_38
REMARK                            x       y       z     vdW  Elec       q    Type
REMARK                         _______ _______ _______ _____ _____    ______ ____
ROOT
ATOM      3  C   UNL     1      20.352  58.104  30.018  0.00  0.00    +0.136 A 
ATOM      4  C   UNL     1      19.489  58.916  30.762  0.00  0.00    +0.075 A 
ATOM      5  C   UNL     1      20.017  59.689  31.905  0.00  0.00    +0.202 C 
ATOM      6  C   UNL     1      19.093  60.541  32.682  0.00  0.00    +0.075 A 
ATOM      7  C   UNL     1      19.581  61.279  33.768  0.00  0.00    +0.129 A 
ATOM      8  C   UNL     1      18.716  62.085  34.508  0.00  0.00    +0.049 A 
ATOM      9  C   UNL     1      17.367  62.158  34.168  0.00  0.00    -0.046 A 
ATOM     10  C   UNL     1      16.445  63.021  34.962  0.00  0.00    +0.044 C 
ATOM     11  C   UNL     1      16.876  61.425  33.086  0.00  0.00    +0.016 A 
ATOM     14  C   UNL     1      17.741  60.614  32.342  0.00  0.00    +0.037 A 
ATOM     15  C   UNL     1      17.213  59.843  31.198  0.00  0.00    +0.195 C 
ATOM     16  O   UNL     1      16.027  59.907  30.898  0.00  0.00    -0.287 OA
ATOM     17  O   UNL     1      21.202  59.628  32.205  0.00  0.00    -0.286 OA
ATOM     18  C   UNL     1      18.136  58.989  30.422  0.00  0.00    +0.037 A 
ATOM     19  C   UNL     1      17.648  58.250  29.337  0.00  0.00    +0.013 A 
ATOM     20  C   UNL     1      18.513  57.443  28.598  0.00  0.00    +0.013 A 
ATOM     21  C   UNL     1      19.862  57.369  28.938  0.00  0.00    +0.025 A 
ENDROOT
BRANCH  21  22
ATOM     22  C   UNL     1      20.735  56.521  28.151  0.00  0.00    +0.000 A 
ATOM     23  C   UNL     1      20.655  55.145  28.380  0.00  0.00    -0.038 A 
ATOM     24  C   UNL     1      19.714  54.563  29.389  0.00  0.00    +0.044 C 
ATOM     25  C   UNL     1      21.465  54.264  27.664  0.00  0.00    +0.050 A 
ATOM     26  C   UNL     1      22.361  54.754  26.713  0.00  0.00    +0.129 A 
ATOM     27  C   UNL     1      22.447  56.131  26.477  0.00  0.00    +0.075 A 
ATOM     28  C   UNL     1      23.397  56.641  25.467  0.00  0.00    +0.202 C 
ATOM     29  C   UNL     1      23.477  58.096  25.228  0.00  0.00    +0.075 A 
ATOM     30  C   UNL     1      24.373  58.592  24.273  0.00  0.00    +0.128 A 
ATOM     31  C   UNL     1      24.455  59.965  24.040  0.00  0.00    +0.046 A 
ATOM     32  C   UNL     1      23.646  60.845  24.756  0.00  0.00    +0.004 A 
ATOM     33  C   UNL     1      22.752  60.355  25.709  0.00  0.00    +0.012 A 
ATOM     36  C   UNL     1      22.667  58.978  25.945  0.00  0.00    +0.037 A 
ATOM     37  C   UNL     1      21.717  58.468  26.956  0.00  0.00    +0.195 C 
ATOM     38  O   UNL     1      21.029  59.281  27.560  0.00  0.00    -0.287 OA
ATOM     39  O   UNL     1      24.106  55.868  24.836  0.00  0.00    -0.286 OA
ATOM     42  C   UNL     1      21.636  57.013  27.195  0.00  0.00    +0.045 A 
BRANCH  30  34
ATOM     34  O   UNL     1      25.195  57.790  23.537  0.00  0.00    -0.506 OA
ATOM     35  H   UNL     1      24.812  56.905  23.436  0.00  0.00    +0.292 HD
ENDBRANCH  30  34
BRANCH  26  40
ATOM     40  O   UNL     1      23.121  53.837  26.049  0.00  0.00    -0.506 OA
ATOM     41  H   UNL     1      23.253  54.124  25.129  0.00  0.00    +0.292 HD
ENDBRANCH  26  40
ENDBRANCH  21  22
BRANCH   3   1
ATOM      1  O   UNL     1      21.683  58.003  30.317  0.00  0.00    -0.505 OA
ATOM      2  H   UNL     1      21.817  57.582  31.178  0.00  0.00    +0.292 HD
ENDBRANCH   3   1
BRANCH   7  12
ATOM     12  O   UNL     1      20.888  61.255  34.156  0.00  0.00    -0.506 OA
ATOM     13  H   UNL     1      20.957  60.887  35.053  0.00  0.00    +0.292 HD
ENDBRANCH   7  12
TORSDOF 5
ENDMDL
MODEL 3
REMARK VINA RESULT:    -8.611      2.338      3.641
REMARK INTER + INTRA:         -10.474
REMARK INTER:                 -10.122
REMARK INTRA:                  -0.352
REMARK UNBOUND:                -0.353
REMARK  Name = C:\Users\HP\Downloads\Anthraquinone_pdb\AD48.pdb
REMARK  7 active torsions:
REMARK  status: ('A' for Active; 'I' for Inactive)
REMARK    1  A    between atoms: O_1  and  C_16
REMARK    2  A    between atoms: O_2  and  C_23
REMARK    3  A    between atoms: O_7  and  C_31
REMARK    4  A    between atoms: O_8  and  C_32
REMARK    5  A    between atoms: C_9  and  C_11
REMARK    6  A    between atoms: C_14  and  C_29
REMARK    7  A    between atoms: C_34  and  C_38
REMARK                            x       y       z     vdW  Elec       q    Type
REMARK                         _______ _______ _______ _____ _____    ______ ____
ROOT
ATOM      3  C   UNL     1      19.744  60.247  32.320  0.00  0.00    +0.136 A 
ATOM      4  C   UNL     1      19.060  61.404  32.708  0.00  0.00    +0.075 A 
ATOM      5  C   UNL     1      18.368  61.442  34.013  0.00  0.00    +0.202 C 
ATOM      6  C   UNL     1      17.649  62.671  34.408  0.00  0.00    +0.075 A 
ATOM      7  C   UNL     1      16.988  62.719  35.642  0.00  0.00    +0.129 A 
ATOM      8  C   UNL     1      16.307  63.874  36.023  0.00  0.00    +0.049 A 
ATOM      9  C   UNL     1      16.284  64.982  35.179  0.00  0.00    -0.046 A 
ATOM     10  C   UNL     1      15.554  66.216  35.591  0.00  0.00    +0.044 C 
ATOM     11  C   UNL     1      16.942  64.940  33.949  0.00  0.00    +0.016 A 
ATOM     14  C   UNL     1      17.626  63.781  33.562  0.00  0.00    +0.037 A 
ATOM     15  C   UNL     1      18.320  63.745  32.259  0.00  0.00    +0.195 C 
ATOM     16  O   UNL     1      18.300  64.719  31.516  0.00  0.00    -0.287 OA
ATOM     17  O   UNL     1      18.387  60.470  34.757  0.00  0.00    -0.286 OA
ATOM     18  C   UNL     1      19.037  62.516  31.862  0.00  0.00    +0.037 A 
ATOM     19  C   UNL     1      19.697  62.467  30.628  0.00  0.00    +0.013 A 
ATOM     20  C   UNL     1      20.376  61.311  30.245  0.00  0.00    +0.013 A 
ATOM     21  C   UNL     1      20.400  60.203  31.090  0.00  0.00    +0.025 A 
ENDROOT
BRANCH  21  22
ATOM     22  C   UNL     1      21.114  59.015  30.664  0.00  0.00    +0.000 A 
ATOM     23  C   UNL     1      22.496  58.999  30.872  0.00  0.00    -0.038 A 
ATOM     24  C   UNL     1      23.215  60.150  31.505  0.00  0.00    +0.044 C 
ATOM     25  C   UNL     1      23.253  57.893  30.488  0.00  0.00    +0.050 A 
ATOM     26  C   UNL     1      22.633  56.795  29.892  0.00  0.00    +0.129 A 
ATOM     27  C   UNL     1      21.249  56.802  29.679  0.00  0.00    +0.075 A 
ATOM     28  C   UNL     1      20.600  55.634  29.049  0.00  0.00    +0.202 C 
ATOM     29  C   UNL     1      19.140  55.655  28.832  0.00  0.00    +0.075 A 
ATOM     30  C   UNL     1      18.513  54.555  28.236  0.00  0.00    +0.128 A 
ATOM     31  C   UNL     1      17.134  54.565  28.028  0.00  0.00    +0.046 A 
ATOM     32  C   UNL     1      16.378  55.671  28.412  0.00  0.00    +0.004 A 
ATOM     33  C   UNL     1      16.999  56.771  29.005  0.00  0.00    +0.012 A 
ATOM     36  C   UNL     1      18.382  56.763  29.217  0.00  0.00    +0.037 A 
ATOM     37  C   UNL     1      19.031  57.932  29.847  0.00  0.00    +0.195 C 
ATOM     38  O   UNL     1      18.324  58.880  30.165  0.00  0.00    -0.287 OA
ATOM     39  O   UNL     1      21.264  54.661  28.714  0.00  0.00    -0.286 OA
ATOM     42  C   UNL     1      20.491  57.910  30.065  0.00  0.00    +0.045 A 
BRANCH  30  34
ATOM     34  O   UNL     1      19.190  53.441  27.835  0.00  0.00    -0.506 OA
ATOM     35  H   UNL     1      19.756  53.106  28.547  0.00  0.00    +0.292 HD
ENDBRANCH  30  34
BRANCH  26  40
ATOM     40  O   UNL     1      23.433  55.747  29.542  0.00  0.00    -0.506 OA
ATOM     41  H   UNL     1      23.579  55.174  30.313  0.00  0.00    +0.292 HD
ENDBRANCH  26  40
ENDBRANCH  21  22
BRANCH   3   1
ATOM      1  O   UNL     1      19.792  59.137  33.118  0.00  0.00    -0.505 OA
ATOM      2  H   UNL     1      20.705  58.880  33.305  0.00  0.00    +0.292 HD
ENDBRANCH   3   1
BRANCH   7  12
ATOM     12  O   UNL     1      16.971  61.673  36.517  0.00  0.00    -0.506 OA
ATOM     13  H   UNL     1      16.918  62.008  37.428  0.00  0.00    +0.292 HD
ENDBRANCH   7  12
TORSDOF 5
ENDMDL
MODEL 4
REMARK VINA RESULT:    -8.608     28.399     30.469
REMARK INTER + INTRA:         -10.470
REMARK INTER:                 -10.100
REMARK INTRA:                  -0.370
REMARK UNBOUND:                -0.353
REMARK  Name = C:\Users\HP\Downloads\Anthraquinone_pdb\AD48.pdb
REMARK  7 active torsions:
REMARK  status: ('A' for Active; 'I' for Inactive)
REMARK    1  A    between atoms: O_1  and  C_16
REMARK    2  A    between atoms: O_2  and  C_23
REMARK    3  A    between atoms: O_7  and  C_31
REMARK    4  A    between atoms: O_8  and  C_32
REMARK    5  A    between atoms: C_9  and  C_11
REMARK    6  A    between atoms: C_14  and  C_29
REMARK    7  A    between atoms: C_34  and  C_38
REMARK                            x       y       z     vdW  Elec       q    Type
REMARK                         _______ _______ _______ _____ _____    ______ ____
ROOT
ATOM      3  C   UNL     1      17.627  70.284   1.629  0.00  0.00    +0.136 A 
ATOM      4  C   UNL     1      18.670  71.107   2.068  0.00  0.00    +0.075 A 
ATOM      5  C   UNL     1      19.078  71.074   3.488  0.00  0.00    +0.202 C 
ATOM      6  C   UNL     1      20.180  71.950   3.937  0.00  0.00    +0.075 A 
ATOM      7  C   UNL     1      20.576  71.929   5.280  0.00  0.00    +0.129 A 
ATOM      8  C   UNL     1      21.615  72.753   5.713  0.00  0.00    +0.049 A 
ATOM      9  C   UNL     1      22.260  73.596   4.812  0.00  0.00    -0.046 A 
ATOM     10  C   UNL     1      23.370  74.475   5.279  0.00  0.00    +0.044 C 
ATOM     11  C   UNL     1      21.870  73.619   3.472  0.00  0.00    +0.016 A 
ATOM     14  C   UNL     1      20.827  72.795   3.033  0.00  0.00    +0.037 A 
ATOM     15  C   UNL     1      20.420  72.826   1.614  0.00  0.00    +0.195 C 
ATOM     16  O   UNL     1      20.988  73.567   0.820  0.00  0.00    -0.287 OA
ATOM     17  O   UNL     1      18.513  70.334   4.282  0.00  0.00    -0.286 OA
ATOM     18  C   UNL     1      19.317  71.952   1.164  0.00  0.00    +0.037 A 
ATOM     19  C   UNL     1      18.920  71.974  -0.179  0.00  0.00    +0.013 A 
ATOM     20  C   UNL     1      17.880  71.152  -0.612  0.00  0.00    +0.013 A 
ATOM     21  C   UNL     1      17.234  70.308   0.290  0.00  0.00    +0.025 A 
ENDROOT
BRANCH  21  22
ATOM     22  C   UNL     1      16.157  69.466  -0.190  0.00  0.00    +0.000 A 
ATOM     23  C   UNL     1      14.868  70.005  -0.156  0.00  0.00    -0.038 A 
ATOM     24  C   UNL     1      14.602  71.389   0.351  0.00  0.00    +0.044 C 
ATOM     25  C   UNL     1      13.780  69.255  -0.599  0.00  0.00    +0.050 A 
ATOM     26  C   UNL     1      13.972  67.960  -1.080  0.00  0.00    +0.129 A 
ATOM     27  C   UNL     1      15.259  67.411  -1.117  0.00  0.00    +0.075 A 
ATOM     28  C   UNL     1      15.454  66.040  -1.630  0.00  0.00    +0.202 C 
ATOM     29  C   UNL     1      16.818  65.474  -1.665  0.00  0.00    +0.075 A 
ATOM     30  C   UNL     1      17.016  64.175  -2.148  0.00  0.00    +0.128 A 
ATOM     31  C   UNL     1      18.301  63.633  -2.186  0.00  0.00    +0.046 A 
ATOM     32  C   UNL     1      19.389  64.382  -1.742  0.00  0.00    +0.004 A 
ATOM     33  C   UNL     1      19.196  65.677  -1.259  0.00  0.00    +0.012 A 
ATOM     36  C   UNL     1      17.908  66.225  -1.220  0.00  0.00    +0.037 A 
ATOM     37  C   UNL     1      17.713  67.597  -0.708  0.00  0.00    +0.195 C 
ATOM     38  O   UNL     1      18.700  68.215  -0.328  0.00  0.00    -0.287 OA
ATOM     39  O   UNL     1      14.499  65.382  -2.022  0.00  0.00    -0.286 OA
ATOM     42  C   UNL     1      16.350  68.163  -0.674  0.00  0.00    +0.045 A 
BRANCH  30  34
ATOM     34  O   UNL     1      15.999  63.385  -2.596  0.00  0.00    -0.506 OA
ATOM     35  H   UNL     1      15.450  63.861  -3.239  0.00  0.00    +0.292 HD
ENDBRANCH  30  34
BRANCH  26  40
ATOM     40  O   UNL     1      12.864  67.284  -1.498  0.00  0.00    -0.506 OA
ATOM     41  H   UNL     1      12.476  67.733  -2.268  0.00  0.00    +0.292 HD
ENDBRANCH  26  40
ENDBRANCH  21  22
BRANCH   3   1
ATOM      1  O   UNL     1      16.966  69.441   2.480  0.00  0.00    -0.505 OA
ATOM      2  H   UNL     1      16.008  69.565   2.421  0.00  0.00    +0.292 HD
ENDBRANCH   3   1
BRANCH   7  12
ATOM     12  O   UNL     1      19.989  71.129   6.216  0.00  0.00    -0.506 OA
ATOM     13  H   UNL     1      20.670  70.753   6.800  0.00  0.00    +0.292 HD
ENDBRANCH   7  12
TORSDOF 5
ENDMDL
MODEL 5
REMARK VINA RESULT:    -8.372      5.004      9.116
REMARK INTER + INTRA:         -10.193
REMARK INTER:                  -9.836
REMARK INTRA:                  -0.357
REMARK UNBOUND:                -0.353
REMARK  Name = C:\Users\HP\Downloads\Anthraquinone_pdb\AD48.pdb
REMARK  7 active torsions:
REMARK  status: ('A' for Active; 'I' for Inactive)
REMARK    1  A    between atoms: O_1  and  C_16
REMARK    2  A    between atoms: O_2  and  C_23
REMARK    3  A    between atoms: O_7  and  C_31
REMARK    4  A    between atoms: O_8  and  C_32
REMARK    5  A    between atoms: C_9  and  C_11
REMARK    6  A    between atoms: C_14  and  C_29
REMARK    7  A    between atoms: C_34  and  C_38
REMARK                            x       y       z     vdW  Elec       q    Type
REMARK                         _______ _______ _______ _____ _____    ______ ____
ROOT
ATOM      3  C   UNL     1      16.089  63.917  35.067  0.00  0.00    +0.136 A 
ATOM      4  C   UNL     1      15.079  64.880  35.156  0.00  0.00    +0.075 A 
ATOM      5  C   UNL     1      13.664  64.468  35.050  0.00  0.00    +0.202 C 
ATOM      6  C   UNL     1      12.609  65.498  35.144  0.00  0.00    +0.075 A 
ATOM      7  C   UNL     1      11.264  65.120  35.044  0.00  0.00    +0.129 A 
ATOM      8  C   UNL     1      10.260  66.085  35.132  0.00  0.00    +0.049 A 
ATOM      9  C   UNL     1      10.594  67.424  35.319  0.00  0.00    -0.046 A 
ATOM     10  C   UNL     1       9.518  68.453  35.412  0.00  0.00    +0.044 C 
ATOM     11  C   UNL     1      11.932  67.805  35.420  0.00  0.00    +0.016 A 
ATOM     14  C   UNL     1      12.942  66.840  35.332  0.00  0.00    +0.037 A 
ATOM     15  C   UNL     1      14.357  67.253  35.441  0.00  0.00    +0.195 C 
ATOM     16  O   UNL     1      14.650  68.430  35.606  0.00  0.00    -0.287 OA
ATOM     17  O   UNL     1      13.368  63.292  34.886  0.00  0.00    -0.286 OA
ATOM     18  C   UNL     1      15.413  66.224  35.344  0.00  0.00    +0.037 A 
ATOM     19  C   UNL     1      16.758  66.602  35.443  0.00  0.00    +0.013 A 
ATOM     20  C   UNL     1      17.761  65.637  35.353  0.00  0.00    +0.013 A 
ATOM     21  C   UNL     1      17.428  64.297  35.166  0.00  0.00    +0.025 A 
ENDROOT
BRANCH  21  22
ATOM     22  C   UNL     1      18.494  63.319  35.077  0.00  0.00    +0.000 A 
ATOM     23  C   UNL     1      19.005  62.828  36.281  0.00  0.00    -0.038 A 
ATOM     24  C   UNL     1      18.483  63.285  37.607  0.00  0.00    +0.044 C 
ATOM     25  C   UNL     1      20.032  61.885  36.277  0.00  0.00    +0.050 A 
ATOM     26  C   UNL     1      20.556  61.427  35.068  0.00  0.00    +0.129 A 
ATOM     27  C   UNL     1      20.050  61.913  33.857  0.00  0.00    +0.075 A 
ATOM     28  C   UNL     1      20.609  61.421  32.581  0.00  0.00    +0.202 C 
ATOM     29  C   UNL     1      20.065  61.942  31.311  0.00  0.00    +0.075 A 
ATOM     30  C   UNL     1      20.586  61.483  30.095  0.00  0.00    +0.128 A 
ATOM     31  C   UNL     1      20.077  61.969  28.890  0.00  0.00    +0.046 A 
ATOM     32  C   UNL     1      19.051  62.911  28.894  0.00  0.00    +0.004 A 
ATOM     33  C   UNL     1      18.529  63.372  30.104  0.00  0.00    +0.012 A 
ATOM     36  C   UNL     1      19.036  62.886  31.315  0.00  0.00    +0.037 A 
ATOM     37  C   UNL     1      18.477  63.379  32.591  0.00  0.00    +0.195 C 
ATOM     38  O   UNL     1      17.577  64.208  32.542  0.00  0.00    -0.287 OA
ATOM     39  O   UNL     1      21.510  60.591  32.577  0.00  0.00    -0.286 OA
ATOM     42  C   UNL     1      19.020  62.857  33.861  0.00  0.00    +0.045 A 
BRANCH  30  34
ATOM     34  O   UNL     1      21.590  60.564  30.016  0.00  0.00    -0.506 OA
ATOM     35  H   UNL     1      22.438  60.995  29.829  0.00  0.00    +0.292 HD
ENDBRANCH  30  34
BRANCH  26  40
ATOM     40  O   UNL     1      21.558  60.505  35.138  0.00  0.00    -0.506 OA
ATOM     41  H   UNL     1      21.188  59.610  35.050  0.00  0.00    +0.292 HD
ENDBRANCH  26  40
ENDBRANCH  21  22
BRANCH   3   1
ATOM      1  O   UNL     1      15.807  62.592  34.883  0.00  0.00    -0.505 OA
ATOM      2  H   UNL     1      15.343  62.223  35.648  0.00  0.00    +0.292 HD
ENDBRANCH   3   1
BRANCH   7  12
ATOM     12  O   UNL     1      10.866  63.828  34.861  0.00  0.00    -0.506 OA
ATOM     13  H   UNL     1      11.261  63.263  35.547  0.00  0.00    +0.292 HD
ENDBRANCH   7  12
TORSDOF 5
ENDMDL
MODEL 6
REMARK VINA RESULT:    -8.370     23.511     26.463
REMARK INTER + INTRA:         -10.191
REMARK INTER:                  -9.912
REMARK INTRA:                  -0.279
REMARK UNBOUND:                -0.353
REMARK  Name = C:\Users\HP\Downloads\Anthraquinone_pdb\AD48.pdb
REMARK  7 active torsions:
REMARK  status: ('A' for Active; 'I' for Inactive)
REMARK    1  A    between atoms: O_1  and  C_16
REMARK    2  A    between atoms: O_2  and  C_23
REMARK    3  A    between atoms: O_7  and  C_31
REMARK    4  A    between atoms: O_8  and  C_32
REMARK    5  A    between atoms: C_9  and  C_11
REMARK    6  A    between atoms: C_14  and  C_29
REMARK    7  A    between atoms: C_34  and  C_38
REMARK                            x       y       z     vdW  Elec       q    Type
REMARK                         _______ _______ _______ _____ _____    ______ ____
ROOT
ATOM      3  C   UNL     1      23.569  48.505   6.824  0.00  0.00    +0.136 A 
ATOM      4  C   UNL     1      24.602  47.946   7.585  0.00  0.00    +0.075 A 
ATOM      5  C   UNL     1      25.959  48.527   7.514  0.00  0.00    +0.202 C 
ATOM      6  C   UNL     1      27.039  47.926   8.322  0.00  0.00    +0.075 A 
ATOM      7  C   UNL     1      28.330  48.466   8.263  0.00  0.00    +0.129 A 
ATOM      8  C   UNL     1      29.356  47.905   9.022  0.00  0.00    +0.049 A 
ATOM      9  C   UNL     1      29.100  46.808   9.841  0.00  0.00    -0.046 A 
ATOM     10  C   UNL     1      30.201  46.211  10.651  0.00  0.00    +0.044 C 
ATOM     11  C   UNL     1      27.816  46.266   9.904  0.00  0.00    +0.016 A 
ATOM     14  C   UNL     1      26.783  46.826   9.143  0.00  0.00    +0.037 A 
ATOM     15  C   UNL     1      25.426  46.247   9.217  0.00  0.00    +0.195 C 
ATOM     16  O   UNL     1      25.200  45.282   9.938  0.00  0.00    -0.287 OA
ATOM     17  O   UNL     1      26.187  49.492   6.796  0.00  0.00    -0.286 OA
ATOM     18  C   UNL     1      24.345  46.846   8.407  0.00  0.00    +0.037 A 
ATOM     19  C   UNL     1      23.055  46.305   8.466  0.00  0.00    +0.013 A 
ATOM     20  C   UNL     1      22.029  46.865   7.705  0.00  0.00    +0.013 A 
ATOM     21  C   UNL     1      22.285  47.962   6.886  0.00  0.00    +0.025 A 
ENDROOT
BRANCH  21  22
ATOM     22  C   UNL     1      21.198  48.521   6.107  0.00  0.00    +0.000 A 
ATOM     23  C   UNL     1      20.508  49.601   6.666  0.00  0.00    -0.038 A 
ATOM     24  C   UNL     1      20.868  50.161   8.007  0.00  0.00    +0.044 C 
ATOM     25  C   UNL     1      19.449  50.191   5.978  0.00  0.00    +0.050 A 
ATOM     26  C   UNL     1      19.072  49.706   4.726  0.00  0.00    +0.129 A 
ATOM     27  C   UNL     1      19.756  48.625   4.158  0.00  0.00    +0.075 A 
ATOM     28  C   UNL     1      19.351  48.120   2.831  0.00  0.00    +0.202 C 
ATOM     29  C   UNL     1      20.083  46.979   2.244  0.00  0.00    +0.075 A 
ATOM     30  C   UNL     1      19.709  46.491   0.987  0.00  0.00    +0.128 A 
ATOM     31  C   UNL     1      20.396  45.414   0.424  0.00  0.00    +0.046 A 
ATOM     32  C   UNL     1      21.454  44.824   1.111  0.00  0.00    +0.004 A 
ATOM     33  C   UNL     1      21.830  45.307   2.365  0.00  0.00    +0.012 A 
ATOM     36  C   UNL     1      21.144  46.387   2.933  0.00  0.00    +0.037 A 
ATOM     37  C   UNL     1      21.549  46.893   4.261  0.00  0.00    +0.195 C 
ATOM     38  O   UNL     1      22.484  46.340   4.826  0.00  0.00    -0.287 OA
ATOM     39  O   UNL     1      18.423  48.640   2.225  0.00  0.00    -0.286 OA
ATOM     42  C   UNL     1      20.818  48.034   4.847  0.00  0.00    +0.045 A 
BRANCH  30  34
ATOM     34  O   UNL     1      18.684  47.018   0.258  0.00  0.00    -0.506 OA
ATOM     35  H   UNL     1      18.031  46.336   0.039  0.00  0.00    +0.292 HD
ENDBRANCH  30  34
BRANCH  26  40
ATOM     40  O   UNL     1      18.028  50.331   4.109  0.00  0.00    -0.506 OA
ATOM     41  H   UNL     1      17.343  50.550   4.763  0.00  0.00    +0.292 HD
ENDBRANCH  26  40
ENDBRANCH  21  22
BRANCH   3   1
ATOM      1  O   UNL     1      23.777  49.581   6.007  0.00  0.00    -0.505 OA
ATOM      2  H   UNL     1      23.196  50.318   6.244  0.00  0.00    +0.292 HD
ENDBRANCH   3   1
BRANCH   7  12
ATOM     12  O   UNL     1      28.652  49.539   7.484  0.00  0.00    -0.506 OA
ATOM     13  H   UNL     1      29.582  49.477   7.208  0.00  0.00    +0.292 HD
ENDBRANCH   7  12
TORSDOF 5
ENDMDL
MODEL 7
REMARK VINA RESULT:    -8.014     25.254     27.594
REMARK INTER + INTRA:          -9.773
REMARK INTER:                  -9.463
REMARK INTRA:                  -0.310
REMARK UNBOUND:                -0.353
REMARK  Name = C:\Users\HP\Downloads\Anthraquinone_pdb\AD48.pdb
REMARK  7 active torsions:
REMARK  status: ('A' for Active; 'I' for Inactive)
REMARK    1  A    between atoms: O_1  and  C_16
REMARK    2  A    between atoms: O_2  and  C_23
REMARK    3  A    between atoms: O_7  and  C_31
REMARK    4  A    between atoms: O_8  and  C_32
REMARK    5  A    between atoms: C_9  and  C_11
REMARK    6  A    between atoms: C_14  and  C_29
REMARK    7  A    between atoms: C_34  and  C_38
REMARK                            x       y       z     vdW  Elec       q    Type
REMARK                         _______ _______ _______ _____ _____    ______ ____
ROOT
ATOM      3  C   UNL     1       8.204  50.249   7.061  0.00  0.00    +0.136 A 
ATOM      4  C   UNL     1       7.291  49.374   7.660  0.00  0.00    +0.075 A 
ATOM      5  C   UNL     1       7.531  48.897   9.037  0.00  0.00    +0.202 C 
ATOM      6  C   UNL     1       6.559  47.972   9.656  0.00  0.00    +0.075 A 
ATOM      7  C   UNL     1       6.776  47.512  10.960  0.00  0.00    +0.129 A 
ATOM      8  C   UNL     1       5.864  46.638  11.552  0.00  0.00    +0.049 A 
ATOM      9  C   UNL     1       4.737  46.222  10.847  0.00  0.00    -0.046 A 
ATOM     10  C   UNL     1       3.765  45.287  11.483  0.00  0.00    +0.044 C 
ATOM     11  C   UNL     1       4.516  46.678   9.547  0.00  0.00    +0.016 A 
ATOM     14  C   UNL     1       5.429  47.555   8.949  0.00  0.00    +0.037 A 
ATOM     15  C   UNL     1       5.188  48.033   7.573  0.00  0.00    +0.195 C 
ATOM     16  O   UNL     1       4.196  47.668   6.953  0.00  0.00    -0.287 OA
ATOM     17  O   UNL     1       8.520  49.262   9.659  0.00  0.00    -0.286 OA
ATOM     18  C   UNL     1       6.160  48.956   6.953  0.00  0.00    +0.037 A 
ATOM     19  C   UNL     1       5.944  49.415   5.648  0.00  0.00    +0.013 A 
ATOM     20  C   UNL     1       6.857  50.288   5.055  0.00  0.00    +0.013 A 
ATOM     21  C   UNL     1       7.985  50.704   5.760  0.00  0.00    +0.025 A 
ENDROOT
BRANCH  21  22
ATOM     22  C   UNL     1       8.915  51.611   5.117  0.00  0.00    +0.000 A 
ATOM     23  C   UNL     1       8.566  52.964   5.094  0.00  0.00    -0.038 A 
ATOM     24  C   UNL     1       7.293  53.464   5.702  0.00  0.00    +0.044 C 
ATOM     25  C   UNL     1       9.409  53.897   4.492  0.00  0.00    +0.050 A 
ATOM     26  C   UNL     1      10.607  53.484   3.908  0.00  0.00    +0.129 A 
ATOM     27  C   UNL     1      10.964  52.130   3.927  0.00  0.00    +0.075 A 
ATOM     28  C   UNL     1      12.235  51.702   3.309  0.00  0.00    +0.202 C 
ATOM     29  C   UNL     1      12.600  50.271   3.336  0.00  0.00    +0.075 A 
ATOM     30  C   UNL     1      13.802  49.852   2.754  0.00  0.00    +0.128 A 
ATOM     31  C   UNL     1      14.155  48.502   2.776  0.00  0.00    +0.046 A 
ATOM     32  C   UNL     1      13.313  47.570   3.378  0.00  0.00    +0.004 A 
ATOM     33  C   UNL     1      12.113  47.983   3.959  0.00  0.00    +0.012 A 
ATOM     36  C   UNL     1      11.756  49.336   3.939  0.00  0.00    +0.037 A 
ATOM     37  C   UNL     1      10.484  49.765   4.558  0.00  0.00    +0.195 C 
ATOM     38  O   UNL     1       9.777  48.908   5.072  0.00  0.00    -0.287 OA
ATOM     39  O   UNL     1      12.977  52.521   2.782  0.00  0.00    -0.286 OA
ATOM     42  C   UNL     1      10.120  51.195   4.531  0.00  0.00    +0.045 A 
BRANCH  30  34
ATOM     34  O   UNL     1      14.673  50.708   2.148  0.00  0.00    -0.506 OA
ATOM     35  H   UNL     1      15.585  50.393   2.238  0.00  0.00    +0.292 HD
ENDBRANCH  30  34
BRANCH  26  40
ATOM     40  O   UNL     1      11.383  54.449   3.338  0.00  0.00    -0.506 OA
ATOM     41  H   UNL     1      11.294  55.279   3.837  0.00  0.00    +0.292 HD
ENDBRANCH  26  40
ENDBRANCH  21  22
BRANCH   3   1
ATOM      1  O   UNL     1       9.323  50.682   7.717  0.00  0.00    -0.505 OA
ATOM      2  H   UNL     1       9.621  50.032   8.367  0.00  0.00    +0.292 HD
ENDBRANCH   3   1
BRANCH   7  12
ATOM     12  O   UNL     1       7.856  47.878  11.708  0.00  0.00    -0.506 OA
ATOM     13  H   UNL     1       8.584  47.251  11.562  0.00  0.00    +0.292 HD
ENDBRANCH   7  12
TORSDOF 5
ENDMDL
MODEL 8
REMARK VINA RESULT:    -7.976     28.834     30.759
REMARK INTER + INTRA:          -9.728
REMARK INTER:                  -9.382
REMARK INTRA:                  -0.345
REMARK UNBOUND:                -0.353
REMARK  Name = C:\Users\HP\Downloads\Anthraquinone_pdb\AD48.pdb
REMARK  7 active torsions:
REMARK  status: ('A' for Active; 'I' for Inactive)
REMARK    1  A    between atoms: O_1  and  C_16
REMARK    2  A    between atoms: O_2  and  C_23
REMARK    3  A    between atoms: O_7  and  C_31
REMARK    4  A    between atoms: O_8  and  C_32
REMARK    5  A    between atoms: C_9  and  C_11
REMARK    6  A    between atoms: C_14  and  C_29
REMARK    7  A    between atoms: C_34  and  C_38
REMARK                            x       y       z     vdW  Elec       q    Type
REMARK                         _______ _______ _______ _____ _____    ______ ____
ROOT
ATOM      3  C   UNL     1      17.586  70.957   0.912  0.00  0.00    +0.136 A 
ATOM      4  C   UNL     1      18.321  71.316   2.047  0.00  0.00    +0.075 A 
ATOM      5  C   UNL     1      19.377  72.344   1.939  0.00  0.00    +0.202 C 
ATOM      6  C   UNL     1      20.146  72.712   3.146  0.00  0.00    +0.075 A 
ATOM      7  C   UNL     1      21.149  73.684   3.057  0.00  0.00    +0.129 A 
ATOM      8  C   UNL     1      21.881  74.037   4.191  0.00  0.00    +0.049 A 
ATOM      9  C   UNL     1      21.614  73.424   5.413  0.00  0.00    -0.046 A 
ATOM     10  C   UNL     1      22.398  73.805   6.623  0.00  0.00    +0.044 C 
ATOM     11  C   UNL     1      20.614  72.455   5.507  0.00  0.00    +0.016 A 
ATOM     14  C   UNL     1      19.878  72.098   4.371  0.00  0.00    +0.037 A 
ATOM     15  C   UNL     1      18.821  71.071   4.480  0.00  0.00    +0.195 C 
ATOM     16  O   UNL     1      18.585  70.533   5.554  0.00  0.00    -0.287 OA
ATOM     17  O   UNL     1      19.613  72.885   0.867  0.00  0.00    -0.286 OA
ATOM     18  C   UNL     1      18.053  70.702   3.273  0.00  0.00    +0.037 A 
ATOM     19  C   UNL     1      17.050  69.729   3.362  0.00  0.00    +0.013 A 
ATOM     20  C   UNL     1      16.320  69.374   2.227  0.00  0.00    +0.013 A 
ATOM     21  C   UNL     1      16.587  69.987   1.005  0.00  0.00    +0.025 A 
ENDROOT
BRANCH  21  22
ATOM     22  C   UNL     1      15.812  69.597  -0.156  0.00  0.00    +0.000 A 
ATOM     23  C   UNL     1      14.662  70.342  -0.429  0.00  0.00    -0.038 A 
ATOM     24  C   UNL     1      14.242  71.493   0.432  0.00  0.00    +0.044 C 
ATOM     25  C   UNL     1      13.863  70.027  -1.527  0.00  0.00    +0.050 A 
ATOM     26  C   UNL     1      14.208  68.963  -2.361  0.00  0.00    +0.129 A 
ATOM     27  C   UNL     1      15.358  68.210  -2.095  0.00  0.00    +0.075 A 
ATOM     28  C   UNL     1      15.718  67.087  -2.984  0.00  0.00    +0.202 C 
ATOM     29  C   UNL     1      16.934  66.302  -2.692  0.00  0.00    +0.075 A 
ATOM     30  C   UNL     1      17.286  65.235  -3.527  0.00  0.00    +0.128 A 
ATOM     31  C   UNL     1      18.434  64.489  -3.259  0.00  0.00    +0.046 A 
ATOM     32  C   UNL     1      19.233  64.804  -2.162  0.00  0.00    +0.004 A 
ATOM     33  C   UNL     1      18.885  65.867  -1.326  0.00  0.00    +0.012 A 
ATOM     36  C   UNL     1      17.734  66.618  -1.592  0.00  0.00    +0.037 A 
ATOM     37  C   UNL     1      17.375  67.742  -0.702  0.00  0.00    +0.195 C 
ATOM     38  O   UNL     1      18.107  67.979   0.250  0.00  0.00    -0.287 OA
ATOM     39  O   UNL     1      15.018  66.811  -3.950  0.00  0.00    -0.286 OA
ATOM     42  C   UNL     1      16.159  68.527  -0.995  0.00  0.00    +0.045 A 
BRANCH  30  34
ATOM     34  O   UNL     1      16.552  64.870  -4.617  0.00  0.00    -0.506 OA
ATOM     35  H   UNL     1      16.272  65.649  -5.120  0.00  0.00    +0.292 HD
ENDBRANCH  30  34
BRANCH  26  40
ATOM     40  O   UNL     1      13.383  68.711  -3.416  0.00  0.00    -0.506 OA
ATOM     41  H   UNL     1      13.722  67.955  -3.926  0.00  0.00    +0.292 HD
ENDBRANCH  26  40
ENDBRANCH  21  22
BRANCH   3   1
ATOM      1  O   UNL     1      17.815  71.533  -0.307  0.00  0.00    -0.505 OA
ATOM      2  H   UNL     1      17.004  71.577  -0.832  0.00  0.00    +0.292 HD
ENDBRANCH   3   1
BRANCH   7  12
ATOM     12  O   UNL     1      21.463  74.324   1.894  0.00  0.00    -0.506 OA
ATOM     13  H   UNL     1      22.147  74.995   2.063  0.00  0.00    +0.292 HD
ENDBRANCH   7  12
TORSDOF 5
ENDMDL
MODEL 9
REMARK VINA RESULT:    -7.838     22.549     26.096
REMARK INTER + INTRA:          -9.565
REMARK INTER:                  -9.213
REMARK INTRA:                  -0.352
REMARK UNBOUND:                -0.353
REMARK  Name = C:\Users\HP\Downloads\Anthraquinone_pdb\AD48.pdb
REMARK  7 active torsions:
REMARK  status: ('A' for Active; 'I' for Inactive)
REMARK    1  A    between atoms: O_1  and  C_16
REMARK    2  A    between atoms: O_2  and  C_23
REMARK    3  A    between atoms: O_7  and  C_31
REMARK    4  A    between atoms: O_8  and  C_32
REMARK    5  A    between atoms: C_9  and  C_11
REMARK    6  A    between atoms: C_14  and  C_29
REMARK    7  A    between atoms: C_34  and  C_38
REMARK                            x       y       z     vdW  Elec       q    Type
REMARK                         _______ _______ _______ _____ _____    ______ ____
ROOT
ATOM      3  C   UNL     1       5.669  48.244  12.343  0.00  0.00    +0.136 A 
ATOM      4  C   UNL     1       5.569  48.962  11.146  0.00  0.00    +0.075 A 
ATOM      5  C   UNL     1       6.694  48.950  10.190  0.00  0.00    +0.202 C 
ATOM      6  C   UNL     1       6.574  49.714   8.931  0.00  0.00    +0.075 A 
ATOM      7  C   UNL     1       7.634  49.711   8.016  0.00  0.00    +0.129 A 
ATOM      8  C   UNL     1       7.530  50.431   6.826  0.00  0.00    +0.049 A 
ATOM      9  C   UNL     1       6.372  51.152   6.545  0.00  0.00    -0.046 A 
ATOM     10  C   UNL     1       6.264  51.920   5.271  0.00  0.00    +0.044 C 
ATOM     11  C   UNL     1       5.312  51.157   7.453  0.00  0.00    +0.016 A 
ATOM     14  C   UNL     1       5.413  50.438   8.649  0.00  0.00    +0.037 A 
ATOM     15  C   UNL     1       4.287  50.449   9.604  0.00  0.00    +0.195 C 
ATOM     16  O   UNL     1       3.268  51.082   9.358  0.00  0.00    -0.287 OA
ATOM     17  O   UNL     1       7.713  48.316  10.434  0.00  0.00    -0.286 OA
ATOM     18  C   UNL     1       4.407  49.686  10.864  0.00  0.00    +0.037 A 
ATOM     19  C   UNL     1       3.348  49.690  11.780  0.00  0.00    +0.013 A 
ATOM     20  C   UNL     1       3.453  48.972  12.971  0.00  0.00    +0.013 A 
ATOM     21  C   UNL     1       4.611  48.251  13.252  0.00  0.00    +0.025 A 
ENDROOT
BRANCH  21  22
ATOM     22  C   UNL     1       4.690  47.515  14.499  0.00  0.00    +0.000 A 
ATOM     23  C   UNL     1       5.043  48.240  15.641  0.00  0.00    -0.038 A 
ATOM     24  C   UNL     1       5.328  49.709  15.589  0.00  0.00    +0.044 C 
ATOM     25  C   UNL     1       5.142  47.602  16.876  0.00  0.00    +0.050 A 
ATOM     26  C   UNL     1       4.889  46.234  16.979  0.00  0.00    +0.129 A 
ATOM     27  C   UNL     1       4.535  45.500  15.841  0.00  0.00    +0.075 A 
ATOM     28  C   UNL     1       4.267  44.052  15.959  0.00  0.00    +0.202 C 
ATOM     29  C   UNL     1       3.893  43.290  14.751  0.00  0.00    +0.075 A 
ATOM     30  C   UNL     1       3.637  41.918  14.849  0.00  0.00    +0.128 A 
ATOM     31  C   UNL     1       3.282  41.191  13.713  0.00  0.00    +0.046 A 
ATOM     32  C   UNL     1       3.184  41.828  12.478  0.00  0.00    +0.004 A 
ATOM     33  C   UNL     1       3.440  43.196  12.374  0.00  0.00    +0.012 A 
ATOM     36  C   UNL     1       3.795  43.929  13.513  0.00  0.00    +0.037 A 
ATOM     37  C   UNL     1       4.063  45.378  13.394  0.00  0.00    +0.195 C 
ATOM     38  O   UNL     1       3.965  45.892  12.287  0.00  0.00    -0.287 OA
ATOM     39  O   UNL     1       4.351  43.492  17.045  0.00  0.00    -0.286 OA
ATOM     42  C   UNL     1       4.435  46.139  14.603  0.00  0.00    +0.045 A 
BRANCH  30  34
ATOM     34  O   UNL     1       3.715  41.229  16.024  0.00  0.00    -0.506 OA
ATOM     35  H   UNL     1       3.626  40.276  15.871  0.00  0.00    +0.292 HD
ENDBRANCH  30  34
BRANCH  26  40
ATOM     40  O   UNL     1       5.003  45.675  18.218  0.00  0.00    -0.506 OA
ATOM     41  H   UNL     1       5.800  45.119  18.255  0.00  0.00    +0.292 HD
ENDBRANCH  26  40
ENDBRANCH  21  22
BRANCH   3   1
ATOM      1  O   UNL     1       6.788  47.523  12.659  0.00  0.00    -0.505 OA
ATOM      2  H   UNL     1       6.789  46.665  12.211  0.00  0.00    +0.292 HD
ENDBRANCH   3   1
BRANCH   7  12
ATOM     12  O   UNL     1       8.796  49.028   8.226  0.00  0.00    -0.506 OA
ATOM     13  H   UNL     1       8.842  48.267   7.622  0.00  0.00    +0.292 HD
ENDBRANCH   7  12
TORSDOF 5
ENDMDL
