MODEL 1
REMARK VINA RESULT:    -9.542      0.000      0.000
REMARK INTER + INTRA:         -11.849
REMARK INTER:                 -11.216
REMARK INTRA:                  -0.634
REMARK UNBOUND:                -0.634
REMARK  Name = C:\Users\HP\Downloads\Anthraquinone_pdb\AD49.pdb
REMARK  7 active torsions:
REMARK  status: ('A' for Active; 'I' for Inactive)
REMARK    1  A    between atoms: O_1  and  C_15
REMARK    2  A    between atoms: O_2  and  C_17
REMARK    3  A    between atoms: O_7  and  C_31
REMARK    4  A    between atoms: O_8  and  C_33
REMARK    5  A    between atoms: C_9  and  C_10
REMARK    6  A    between atoms: C_14  and  C_29
REMARK    7  A    between atoms: C_32  and  C_38
REMARK                            x       y       z     vdW  Elec       q    Type
REMARK                         _______ _______ _______ _____ _____    ______ ____
ROOT
ATOM      3  C   UNL     1      24.808  59.963  26.348  0.00  0.00    +0.136 A 
ATOM      4  C   UNL     1      25.421  59.565  25.153  0.00  0.00    +0.075 A 
ATOM      5  C   UNL     1      26.525  60.374  24.596  0.00  0.00    +0.202 C 
ATOM      6  C   UNL     1      27.163  59.942  23.336  0.00  0.00    +0.075 A 
ATOM      7  C   UNL     1      28.211  60.698  22.796  0.00  0.00    +0.128 A 
ATOM      8  C   UNL     1      28.820  60.299  21.608  0.00  0.00    +0.046 A 
ATOM      9  C   UNL     1      28.387  59.146  20.954  0.00  0.00    +0.004 A 
ATOM     10  C   UNL     1      27.343  58.391  21.487  0.00  0.00    +0.012 A 
ATOM     13  C   UNL     1      26.729  58.789  22.680  0.00  0.00    +0.037 A 
ATOM     14  C   UNL     1      25.625  57.981  23.237  0.00  0.00    +0.195 C 
ATOM     15  O   UNL     1      25.243  56.970  22.660  0.00  0.00    -0.287 OA
ATOM     16  O   UNL     1      26.909  61.385  25.169  0.00  0.00    -0.286 OA
ATOM     17  C   UNL     1      24.987  58.411  24.498  0.00  0.00    +0.037 A 
ATOM     18  C   UNL     1      23.940  57.653  25.038  0.00  0.00    +0.016 A 
ATOM     19  C   UNL     1      23.333  58.053  26.229  0.00  0.00    -0.038 A 
ATOM     20  C   UNL     1      22.217  57.217  26.770  0.00  0.00    +0.044 C 
ATOM     21  C   UNL     1      23.765  59.206  26.885  0.00  0.00    +0.031 A 
ENDROOT
BRANCH  21  22
ATOM     22  C   UNL     1      23.129  59.616  28.122  0.00  0.00    +0.028 A 
ATOM     23  C   UNL     1      23.667  59.177  29.330  0.00  0.00    +0.013 A 
ATOM     24  C   UNL     1      23.077  59.554  30.537  0.00  0.00    +0.013 A 
ATOM     25  C   UNL     1      21.943  60.375  30.535  0.00  0.00    +0.037 A 
ATOM     26  C   UNL     1      21.325  60.771  31.818  0.00  0.00    +0.195 C 
ATOM     27  C   UNL     1      20.131  61.640  31.800  0.00  0.00    +0.037 A 
ATOM     28  C   UNL     1      19.537  62.022  33.009  0.00  0.00    +0.016 A 
ATOM     29  C   UNL     1      18.409  62.843  33.003  0.00  0.00    -0.046 A 
ATOM     30  C   UNL     1      17.777  63.250  34.291  0.00  0.00    +0.044 C 
ATOM     31  C   UNL     1      17.871  63.282  31.794  0.00  0.00    +0.049 A 
ATOM     32  C   UNL     1      18.459  62.902  30.587  0.00  0.00    +0.129 A 
ATOM     35  C   UNL     1      19.593  62.080  30.590  0.00  0.00    +0.075 A 
ATOM     36  C   UNL     1      20.209  61.683  29.307  0.00  0.00    +0.202 C 
ATOM     37  O   UNL     1      19.734  62.071  28.248  0.00  0.00    -0.286 OA
ATOM     38  O   UNL     1      21.798  60.383  32.879  0.00  0.00    -0.287 OA
ATOM     39  C   UNL     1      21.404  60.816  29.324  0.00  0.00    +0.075 A 
ATOM     40  C   UNL     1      21.999  60.435  28.116  0.00  0.00    +0.136 A 
BRANCH  32  33
ATOM     33  O   UNL     1      17.881  63.368  29.444  0.00  0.00    -0.506 OA
ATOM     34  H   UNL     1      18.291  64.213  29.191  0.00  0.00    +0.292 HD
ENDBRANCH  32  33
BRANCH  40  41
ATOM     41  O   UNL     1      21.504  60.842  26.909  0.00  0.00    -0.505 OA
ATOM     42  H   UNL     1      22.205  61.196  26.343  0.00  0.00    +0.292 HD
ENDBRANCH  40  41
ENDBRANCH  21  22
BRANCH   3   1
ATOM      1  O   UNL     1      25.204  61.084  27.020  0.00  0.00    -0.505 OA
ATOM      2  H   UNL     1      25.521  61.783  26.430  0.00  0.00    +0.292 HD
ENDBRANCH   3   1
BRANCH   7  11
ATOM     11  O   UNL     1      28.686  61.835  23.382  0.00  0.00    -0.506 OA
ATOM     12  H   UNL     1      28.885  62.509  22.715  0.00  0.00    +0.292 HD
ENDBRANCH   7  11
TORSDOF 5
ENDMDL
MODEL 2
REMARK VINA RESULT:    -9.476      2.999     11.552
REMARK INTER + INTRA:         -11.771
REMARK INTER:                 -11.246
REMARK INTRA:                  -0.525
REMARK UNBOUND:                -0.634
REMARK  Name = C:\Users\HP\Downloads\Anthraquinone_pdb\AD49.pdb
REMARK  7 active torsions:
REMARK  status: ('A' for Active; 'I' for Inactive)
REMARK    1  A    between atoms: O_1  and  C_15
REMARK    2  A    between atoms: O_2  and  C_17
REMARK    3  A    between atoms: O_7  and  C_31
REMARK    4  A    between atoms: O_8  and  C_33
REMARK    5  A    between atoms: C_9  and  C_10
REMARK    6  A    between atoms: C_14  and  C_29
REMARK    7  A    between atoms: C_32  and  C_38
REMARK                            x       y       z     vdW  Elec       q    Type
REMARK                         _______ _______ _______ _____ _____    ______ ____
ROOT
ATOM      3  C   UNL     1      18.157  63.054  32.734  0.00  0.00    +0.136 A 
ATOM      4  C   UNL     1      17.057  63.531  33.458  0.00  0.00    +0.075 A 
ATOM      5  C   UNL     1      17.169  64.805  34.198  0.00  0.00    +0.202 C 
ATOM      6  C   UNL     1      16.000  65.298  34.956  0.00  0.00    +0.075 A 
ATOM      7  C   UNL     1      16.092  66.503  35.662  0.00  0.00    +0.128 A 
ATOM      8  C   UNL     1      14.994  66.977  36.380  0.00  0.00    +0.046 A 
ATOM      9  C   UNL     1      13.805  66.251  36.397  0.00  0.00    +0.004 A 
ATOM     10  C   UNL     1      13.709  65.049  35.696  0.00  0.00    +0.012 A 
ATOM     13  C   UNL     1      14.809  64.570  34.974  0.00  0.00    +0.037 A 
ATOM     14  C   UNL     1      14.698  63.296  34.234  0.00  0.00    +0.195 C 
ATOM     15  O   UNL     1      13.653  62.657  34.252  0.00  0.00    -0.287 OA
ATOM     16  O   UNL     1      18.211  65.446  34.183  0.00  0.00    -0.286 OA
ATOM     17  C   UNL     1      15.865  62.804  33.475  0.00  0.00    +0.037 A 
ATOM     18  C   UNL     1      15.772  61.599  32.768  0.00  0.00    +0.016 A 
ATOM     19  C   UNL     1      16.871  61.127  32.048  0.00  0.00    -0.038 A 
ATOM     20  C   UNL     1      16.730  59.834  31.308  0.00  0.00    +0.044 C 
ATOM     21  C   UNL     1      18.062  61.852  32.029  0.00  0.00    +0.031 A 
ENDROOT
BRANCH  21  22
ATOM     22  C   UNL     1      19.200  61.356  31.280  0.00  0.00    +0.028 A 
ATOM     23  C   UNL     1      19.975  60.338  31.833  0.00  0.00    +0.013 A 
ATOM     24  C   UNL     1      21.077  59.840  31.136  0.00  0.00    +0.013 A 
ATOM     25  C   UNL     1      21.404  60.363  29.879  0.00  0.00    +0.037 A 
ATOM     26  C   UNL     1      22.571  59.829  29.147  0.00  0.00    +0.195 C 
ATOM     27  C   UNL     1      22.904  60.388  27.821  0.00  0.00    +0.037 A 
ATOM     28  C   UNL     1      24.007  59.890  27.118  0.00  0.00    +0.016 A 
ATOM     29  C   UNL     1      24.328  60.411  25.864  0.00  0.00    -0.046 A 
ATOM     30  C   UNL     1      25.504  59.881  25.116  0.00  0.00    +0.044 C 
ATOM     31  C   UNL     1      23.553  61.429  25.312  0.00  0.00    +0.049 A 
ATOM     32  C   UNL     1      22.453  61.929  26.010  0.00  0.00    +0.129 A 
ATOM     35  C   UNL     1      22.127  61.407  27.268  0.00  0.00    +0.075 A 
ATOM     36  C   UNL     1      20.960  61.942  27.999  0.00  0.00    +0.202 C 
ATOM     37  O   UNL     1      20.282  62.836  27.510  0.00  0.00    -0.286 OA
ATOM     38  O   UNL     1      23.253  58.935  29.635  0.00  0.00    -0.287 OA
ATOM     39  C   UNL     1      20.627  61.382  29.324  0.00  0.00    +0.075 A 
ATOM     40  C   UNL     1      19.523  61.879  30.027  0.00  0.00    +0.136 A 
BRANCH  32  33
ATOM     33  O   UNL     1      21.739  62.924  25.409  0.00  0.00    -0.506 OA
ATOM     34  H   UNL     1      22.272  63.329  24.704  0.00  0.00    +0.292 HD
ENDBRANCH  32  33
BRANCH  40  41
ATOM     41  O   UNL     1      18.736  62.876  29.522  0.00  0.00    -0.505 OA
ATOM     42  H   UNL     1      19.239  63.455  28.933  0.00  0.00    +0.292 HD
ENDBRANCH  40  41
ENDBRANCH  21  22
BRANCH   3   1
ATOM      1  O   UNL     1      19.339  63.736  32.691  0.00  0.00    -0.505 OA
ATOM      2  H   UNL     1      19.219  64.688  32.555  0.00  0.00    +0.292 HD
ENDBRANCH   3   1
BRANCH   7  11
ATOM     11  O   UNL     1      17.223  67.265  35.689  0.00  0.00    -0.506 OA
ATOM     12  H   UNL     1      18.012  66.716  35.563  0.00  0.00    +0.292 HD
ENDBRANCH   7  11
TORSDOF 5
ENDMDL
MODEL 3
REMARK VINA RESULT:    -9.187      2.361     10.441
REMARK INTER + INTRA:         -11.432
REMARK INTER:                 -11.184
REMARK INTRA:                  -0.248
REMARK UNBOUND:                -0.634
REMARK  Name = C:\Users\HP\Downloads\Anthraquinone_pdb\AD49.pdb
REMARK  7 active torsions:
REMARK  status: ('A' for Active; 'I' for Inactive)
REMARK    1  A    between atoms: O_1  and  C_15
REMARK    2  A    between atoms: O_2  and  C_17
REMARK    3  A    between atoms: O_7  and  C_31
REMARK    4  A    between atoms: O_8  and  C_33
REMARK    5  A    between atoms: C_9  and  C_10
REMARK    6  A    between atoms: C_14  and  C_29
REMARK    7  A    between atoms: C_32  and  C_38
REMARK                            x       y       z     vdW  Elec       q    Type
REMARK                         _______ _______ _______ _____ _____    ______ ____
ROOT
ATOM      3  C   UNL     1      19.558  61.424  30.993  0.00  0.00    +0.136 A 
ATOM      4  C   UNL     1      18.472  61.830  31.778  0.00  0.00    +0.075 A 
ATOM      5  C   UNL     1      18.538  63.114  32.506  0.00  0.00    +0.202 C 
ATOM      6  C   UNL     1      17.384  63.532  33.329  0.00  0.00    +0.075 A 
ATOM      7  C   UNL     1      17.434  64.746  34.024  0.00  0.00    +0.128 A 
ATOM      8  C   UNL     1      16.349  65.149  34.803  0.00  0.00    +0.046 A 
ATOM      9  C   UNL     1      15.215  64.344  34.890  0.00  0.00    +0.004 A 
ATOM     10  C   UNL     1      15.161  63.133  34.200  0.00  0.00    +0.012 A 
ATOM     13  C   UNL     1      16.248  62.726  33.417  0.00  0.00    +0.037 A 
ATOM     14  C   UNL     1      16.182  61.442  32.689  0.00  0.00    +0.195 C 
ATOM     15  O   UNL     1      15.186  60.733  32.769  0.00  0.00    -0.287 OA
ATOM     16  O   UNL     1      19.532  63.824  32.430  0.00  0.00    -0.286 OA
ATOM     17  C   UNL     1      17.335  61.024  31.866  0.00  0.00    +0.037 A 
ATOM     18  C   UNL     1      17.284  59.811  31.169  0.00  0.00    +0.016 A 
ATOM     19  C   UNL     1      18.369  59.409  30.389  0.00  0.00    -0.038 A 
ATOM     20  C   UNL     1      18.275  58.105  29.662  0.00  0.00    +0.044 C 
ATOM     21  C   UNL     1      19.506  60.213  30.299  0.00  0.00    +0.031 A 
ENDROOT
BRANCH  21  22
ATOM     22  C   UNL     1      20.630  59.790  29.487  0.00  0.00    +0.028 A 
ATOM     23  C   UNL     1      21.361  58.672  29.885  0.00  0.00    +0.013 A 
ATOM     24  C   UNL     1      22.449  58.241  29.125  0.00  0.00    +0.013 A 
ATOM     25  C   UNL     1      22.806  58.931  27.960  0.00  0.00    +0.037 A 
ATOM     26  C   UNL     1      23.958  58.467  27.161  0.00  0.00    +0.195 C 
ATOM     27  C   UNL     1      24.322  59.203  25.933  0.00  0.00    +0.037 A 
ATOM     28  C   UNL     1      25.412  58.772  25.166  0.00  0.00    +0.016 A 
ATOM     29  C   UNL     1      25.763  59.460  24.005  0.00  0.00    -0.046 A 
ATOM     30  C   UNL     1      26.923  59.001  23.188  0.00  0.00    +0.044 C 
ATOM     31  C   UNL     1      25.031  60.578  23.607  0.00  0.00    +0.049 A 
ATOM     32  C   UNL     1      23.945  61.011  24.369  0.00  0.00    +0.129 A 
ATOM     35  C   UNL     1      23.589  60.322  25.534  0.00  0.00    +0.075 A 
ATOM     36  C   UNL     1      22.437  60.787  26.334  0.00  0.00    +0.202 C 
ATOM     37  O   UNL     1      21.797  61.769  25.982  0.00  0.00    -0.286 OA
ATOM     38  O   UNL     1      24.602  57.485  27.512  0.00  0.00    -0.287 OA
ATOM     39  C   UNL     1      22.072  60.051  27.561  0.00  0.00    +0.075 A 
ATOM     40  C   UNL     1      20.982  60.480  28.327  0.00  0.00    +0.136 A 
BRANCH  32  33
ATOM     33  O   UNL     1      23.274  62.111  23.921  0.00  0.00    -0.506 OA
ATOM     34  H   UNL     1      23.690  62.438  23.105  0.00  0.00    +0.292 HD
ENDBRANCH  32  33
BRANCH  40  41
ATOM     41  O   UNL     1      20.238  61.570  27.974  0.00  0.00    -0.505 OA
ATOM     42  H   UNL     1      19.324  61.485  28.279  0.00  0.00    +0.292 HD
ENDBRANCH  40  41
ENDBRANCH  21  22
BRANCH   3   1
ATOM      1  O   UNL     1      20.687  62.184  30.881  0.00  0.00    -0.505 OA
ATOM      2  H   UNL     1      21.360  61.957  31.539  0.00  0.00    +0.292 HD
ENDBRANCH   3   1
BRANCH   7  11
ATOM     11  O   UNL     1      18.510  65.582  33.984  0.00  0.00    -0.506 OA
ATOM     12  H   UNL     1      18.724  65.912  34.870  0.00  0.00    +0.292 HD
ENDBRANCH   7  11
TORSDOF 5
ENDMDL
MODEL 4
REMARK VINA RESULT:    -9.135      0.969     10.082
REMARK INTER + INTRA:         -11.370
REMARK INTER:                 -10.867
REMARK INTRA:                  -0.503
REMARK UNBOUND:                -0.634
REMARK  Name = C:\Users\HP\Downloads\Anthraquinone_pdb\AD49.pdb
REMARK  7 active torsions:
REMARK  status: ('A' for Active; 'I' for Inactive)
REMARK    1  A    between atoms: O_1  and  C_15
REMARK    2  A    between atoms: O_2  and  C_17
REMARK    3  A    between atoms: O_7  and  C_31
REMARK    4  A    between atoms: O_8  and  C_33
REMARK    5  A    between atoms: C_9  and  C_10
REMARK    6  A    between atoms: C_14  and  C_29
REMARK    7  A    between atoms: C_32  and  C_38
REMARK                            x       y       z     vdW  Elec       q    Type
REMARK                         _______ _______ _______ _____ _____    ______ ____
ROOT
ATOM      3  C   UNL     1      21.313  60.294  28.489  0.00  0.00    +0.136 A 
ATOM      4  C   UNL     1      20.600  60.584  29.659  0.00  0.00    +0.075 A 
ATOM      5  C   UNL     1      19.594  61.666  29.651  0.00  0.00    +0.202 C 
ATOM      6  C   UNL     1      18.848  61.960  30.891  0.00  0.00    +0.075 A 
ATOM      7  C   UNL     1      17.891  62.982  30.898  0.00  0.00    +0.128 A 
ATOM      8  C   UNL     1      17.181  63.267  32.064  0.00  0.00    +0.046 A 
ATOM      9  C   UNL     1      17.423  62.534  33.225  0.00  0.00    +0.004 A 
ATOM     10  C   UNL     1      18.375  61.515  33.223  0.00  0.00    +0.012 A 
ATOM     13  C   UNL     1      19.090  61.227  32.054  0.00  0.00    +0.037 A 
ATOM     14  C   UNL     1      20.096  60.146  32.063  0.00  0.00    +0.195 C 
ATOM     15  O   UNL     1      20.310  59.505  33.085  0.00  0.00    -0.287 OA
ATOM     16  O   UNL     1      19.378  62.310  28.632  0.00  0.00    -0.286 OA
ATOM     17  C   UNL     1      20.842  59.851  30.822  0.00  0.00    +0.037 A 
ATOM     18  C   UNL     1      21.797  58.827  30.816  0.00  0.00    +0.016 A 
ATOM     19  C   UNL     1      22.506  58.542  29.648  0.00  0.00    -0.038 A 
ATOM     20  C   UNL     1      23.519  57.442  29.685  0.00  0.00    +0.044 C 
ATOM     21  C   UNL     1      22.266  59.273  28.485  0.00  0.00    +0.031 A 
ENDROOT
BRANCH  21  22
ATOM     22  C   UNL     1      23.006  58.972  27.275  0.00  0.00    +0.028 A 
ATOM     23  C   UNL     1      22.647  57.849  26.532  0.00  0.00    +0.013 A 
ATOM     24  C   UNL     1      23.341  57.533  25.363  0.00  0.00    +0.013 A 
ATOM     25  C   UNL     1      24.398  58.345  24.935  0.00  0.00    +0.037 A 
ATOM     26  C   UNL     1      25.127  58.004  23.696  0.00  0.00    +0.195 C 
ATOM     27  C   UNL     1      26.238  58.871  23.256  0.00  0.00    +0.037 A 
ATOM     28  C   UNL     1      26.935  58.559  22.082  0.00  0.00    +0.016 A 
ATOM     29  C   UNL     1      27.986  59.373  21.658  0.00  0.00    -0.046 A 
ATOM     30  C   UNL     1      28.729  59.039  20.408  0.00  0.00    +0.044 C 
ATOM     31  C   UNL     1      28.344  60.496  22.401  0.00  0.00    +0.049 A 
ATOM     32  C   UNL     1      27.652  60.810  23.572  0.00  0.00    +0.129 A 
ATOM     35  C   UNL     1      26.596  59.997  24.000  0.00  0.00    +0.075 A 
ATOM     36  C   UNL     1      25.868  60.338  25.240  0.00  0.00    +0.202 C 
ATOM     37  O   UNL     1      26.186  61.325  25.890  0.00  0.00    -0.286 OA
ATOM     38  O   UNL     1      24.812  57.015  23.044  0.00  0.00    -0.287 OA
ATOM     39  C   UNL     1      24.756  59.472  25.680  0.00  0.00    +0.075 A 
ATOM     40  C   UNL     1      24.058  59.785  26.852  0.00  0.00    +0.136 A 
BRANCH  32  33
ATOM     33  O   UNL     1      28.055  61.924  24.248  0.00  0.00    -0.506 OA
ATOM     34  H   UNL     1      28.946  61.782  24.611  0.00  0.00    +0.292 HD
ENDBRANCH  32  33
BRANCH  40  41
ATOM     41  O   UNL     1      24.376  60.876  27.610  0.00  0.00    -0.505 OA
ATOM     42  H   UNL     1      24.445  60.644  28.547  0.00  0.00    +0.292 HD
ENDBRANCH  40  41
ENDBRANCH  21  22
BRANCH   3   1
ATOM      1  O   UNL     1      21.105  60.988  27.331  0.00  0.00    -0.505 OA
ATOM      2  H   UNL     1      21.930  61.274  26.911  0.00  0.00    +0.292 HD
ENDBRANCH   3   1
BRANCH   7  11
ATOM     11  O   UNL     1      17.603  63.738  29.799  0.00  0.00    -0.506 OA
ATOM     12  H   UNL     1      17.053  64.499  30.039  0.00  0.00    +0.292 HD
ENDBRANCH   7  11
TORSDOF 5
ENDMDL
MODEL 5
REMARK VINA RESULT:    -8.637     22.992     26.221
REMARK INTER + INTRA:         -10.785
REMARK INTER:                 -10.269
REMARK INTRA:                  -0.516
REMARK UNBOUND:                -0.634
REMARK  Name = C:\Users\HP\Downloads\Anthraquinone_pdb\AD49.pdb
REMARK  7 active torsions:
REMARK  status: ('A' for Active; 'I' for Inactive)
REMARK    1  A    between atoms: O_1  and  C_15
REMARK    2  A    between atoms: O_2  and  C_17
REMARK    3  A    between atoms: O_7  and  C_31
REMARK    4  A    between atoms: O_8  and  C_33
REMARK    5  A    between atoms: C_9  and  C_10
REMARK    6  A    between atoms: C_14  and  C_29
REMARK    7  A    between atoms: C_32  and  C_38
REMARK                            x       y       z     vdW  Elec       q    Type
REMARK                         _______ _______ _______ _____ _____    ______ ____
ROOT
ATOM      3  C   UNL     1      20.919  47.337   4.731  0.00  0.00    +0.136 A 
ATOM      4  C   UNL     1      19.871  47.784   3.915  0.00  0.00    +0.075 A 
ATOM      5  C   UNL     1      19.535  47.037   2.686  0.00  0.00    +0.202 C 
ATOM      6  C   UNL     1      18.427  47.518   1.835  0.00  0.00    +0.075 A 
ATOM      7  C   UNL     1      18.097  46.820   0.668  0.00  0.00    +0.128 A 
ATOM      8  C   UNL     1      17.052  47.266  -0.140  0.00  0.00    +0.046 A 
ATOM      9  C   UNL     1      16.334  48.408   0.212  0.00  0.00    +0.004 A 
ATOM     10  C   UNL     1      16.660  49.107   1.374  0.00  0.00    +0.012 A 
ATOM     13  C   UNL     1      17.709  48.662   2.188  0.00  0.00    +0.037 A 
ATOM     14  C   UNL     1      18.045  49.409   3.417  0.00  0.00    +0.195 C 
ATOM     15  O   UNL     1      17.417  50.415   3.724  0.00  0.00    -0.287 OA
ATOM     16  O   UNL     1      20.161  46.033   2.374  0.00  0.00    -0.286 OA
ATOM     17  C   UNL     1      19.153  48.928   4.268  0.00  0.00    +0.037 A 
ATOM     18  C   UNL     1      19.481  49.626   5.437  0.00  0.00    +0.016 A 
ATOM     19  C   UNL     1      20.525  49.177   6.246  0.00  0.00    -0.038 A 
ATOM     20  C   UNL     1      20.845  49.953   7.484  0.00  0.00    +0.044 C 
ATOM     21  C   UNL     1      21.245  48.035   5.896  0.00  0.00    +0.031 A 
ENDROOT
BRANCH  21  22
ATOM     22  C   UNL     1      22.329  47.574   6.741  0.00  0.00    +0.028 A 
ATOM     23  C   UNL     1      22.084  46.540   7.642  0.00  0.00    +0.013 A 
ATOM     24  C   UNL     1      23.108  46.076   8.469  0.00  0.00    +0.013 A 
ATOM     25  C   UNL     1      24.383  46.649   8.394  0.00  0.00    +0.037 A 
ATOM     26  C   UNL     1      25.461  46.150   9.272  0.00  0.00    +0.195 C 
ATOM     27  C   UNL     1      26.802  46.762   9.180  0.00  0.00    +0.037 A 
ATOM     28  C   UNL     1      27.832  46.298  10.007  0.00  0.00    +0.016 A 
ATOM     29  C   UNL     1      29.102  46.869   9.926  0.00  0.00    -0.046 A 
ATOM     30  C   UNL     1      30.199  46.375  10.807  0.00  0.00    +0.044 C 
ATOM     31  C   UNL     1      29.347  47.904   9.024  0.00  0.00    +0.049 A 
ATOM     32  C   UNL     1      28.323  48.370   8.199  0.00  0.00    +0.129 A 
ATOM     35  C   UNL     1      27.047  47.798   8.276  0.00  0.00    +0.075 A 
ATOM     36  C   UNL     1      25.969  48.297   7.398  0.00  0.00    +0.202 C 
ATOM     37  O   UNL     1      26.188  49.206   6.608  0.00  0.00    -0.286 OA
ATOM     38  O   UNL     1      25.244  45.242  10.065  0.00  0.00    -0.287 OA
ATOM     39  C   UNL     1      24.628  47.685   7.489  0.00  0.00    +0.075 A 
ATOM     40  C   UNL     1      23.599  48.147   6.662  0.00  0.00    +0.136 A 
BRANCH  32  33
ATOM     33  O   UNL     1      28.633  49.384   7.341  0.00  0.00    -0.506 OA
ATOM     34  H   UNL     1      27.817  49.761   6.971  0.00  0.00    +0.292 HD
ENDBRANCH  32  33
BRANCH  40  41
ATOM     41  O   UNL     1      23.795  49.159   5.764  0.00  0.00    -0.505 OA
ATOM     42  H   UNL     1      24.658  49.578   5.891  0.00  0.00    +0.292 HD
ENDBRANCH  40  41
ENDBRANCH  21  22
BRANCH   3   1
ATOM      1  O   UNL     1      21.645  46.222   4.421  0.00  0.00    -0.505 OA
ATOM      2  H   UNL     1      22.285  46.376   3.711  0.00  0.00    +0.292 HD
ENDBRANCH   3   1
BRANCH   7  11
ATOM     11  O   UNL     1      18.755  45.696   0.263  0.00  0.00    -0.506 OA
ATOM     12  H   UNL     1      18.543  44.945   0.838  0.00  0.00    +0.292 HD
ENDBRANCH   7  11
TORSDOF 5
ENDMDL
MODEL 6
REMARK VINA RESULT:    -8.591     25.731     29.725
REMARK INTER + INTRA:         -10.731
REMARK INTER:                 -10.094
REMARK INTRA:                  -0.637
REMARK UNBOUND:                -0.634
REMARK  Name = C:\Users\HP\Downloads\Anthraquinone_pdb\AD49.pdb
REMARK  7 active torsions:
REMARK  status: ('A' for Active; 'I' for Inactive)
REMARK    1  A    between atoms: O_1  and  C_15
REMARK    2  A    between atoms: O_2  and  C_17
REMARK    3  A    between atoms: O_7  and  C_31
REMARK    4  A    between atoms: O_8  and  C_33
REMARK    5  A    between atoms: C_9  and  C_10
REMARK    6  A    between atoms: C_14  and  C_29
REMARK    7  A    between atoms: C_32  and  C_38
REMARK                            x       y       z     vdW  Elec       q    Type
REMARK                         _______ _______ _______ _____ _____    ______ ____
ROOT
ATOM      3  C   UNL     1      18.126  70.503   1.981  0.00  0.00    +0.136 A 
ATOM      4  C   UNL     1      19.021  71.511   2.362  0.00  0.00    +0.075 A 
ATOM      5  C   UNL     1      19.691  71.432   3.676  0.00  0.00    +0.202 C 
ATOM      6  C   UNL     1      20.633  72.501   4.065  0.00  0.00    +0.075 A 
ATOM      7  C   UNL     1      21.275  72.440   5.308  0.00  0.00    +0.128 A 
ATOM      8  C   UNL     1      22.167  73.444   5.683  0.00  0.00    +0.046 A 
ATOM      9  C   UNL     1      22.421  74.510   4.822  0.00  0.00    +0.004 A 
ATOM     10  C   UNL     1      21.783  74.576   3.584  0.00  0.00    +0.012 A 
ATOM     13  C   UNL     1      20.887  73.570   3.204  0.00  0.00    +0.037 A 
ATOM     14  C   UNL     1      20.217  73.649   1.889  0.00  0.00    +0.195 C 
ATOM     15  O   UNL     1      20.437  74.588   1.135  0.00  0.00    -0.287 OA
ATOM     16  O   UNL     1      19.472  70.496   4.434  0.00  0.00    -0.286 OA
ATOM     17  C   UNL     1      19.275  72.579   1.500  0.00  0.00    +0.037 A 
ATOM     18  C   UNL     1      18.634  72.641   0.256  0.00  0.00    +0.016 A 
ATOM     19  C   UNL     1      17.744  71.634  -0.119  0.00  0.00    -0.038 A 
ATOM     20  C   UNL     1      17.079  71.739  -1.455  0.00  0.00    +0.044 C 
ATOM     21  C   UNL     1      17.488  70.566   0.740  0.00  0.00    +0.031 A 
ENDROOT
BRANCH  21  22
ATOM     22  C   UNL     1      16.561  69.524   0.344  0.00  0.00    +0.028 A 
ATOM     23  C   UNL     1      15.206  69.691   0.623  0.00  0.00    +0.013 A 
ATOM     24  C   UNL     1      14.289  68.705   0.255  0.00  0.00    +0.013 A 
ATOM     25  C   UNL     1      14.731  67.547  -0.396  0.00  0.00    +0.037 A 
ATOM     26  C   UNL     1      13.753  66.509  -0.783  0.00  0.00    +0.195 C 
ATOM     27  C   UNL     1      14.233  65.293  -1.471  0.00  0.00    +0.037 A 
ATOM     28  C   UNL     1      13.316  64.302  -1.843  0.00  0.00    +0.016 A 
ATOM     29  C   UNL     1      13.760  63.151  -2.494  0.00  0.00    -0.046 A 
ATOM     30  C   UNL     1      12.784  62.096  -2.891  0.00  0.00    +0.044 C 
ATOM     31  C   UNL     1      15.116  62.983  -2.772  0.00  0.00    +0.049 A 
ATOM     32  C   UNL     1      16.033  63.968  -2.401  0.00  0.00    +0.129 A 
ATOM     35  C   UNL     1      15.591  65.126  -1.750  0.00  0.00    +0.075 A 
ATOM     36  C   UNL     1      16.569  66.163  -1.362  0.00  0.00    +0.202 C 
ATOM     37  O   UNL     1      17.758  66.013  -1.608  0.00  0.00    -0.286 OA
ATOM     38  O   UNL     1      12.562  66.655  -0.536  0.00  0.00    -0.287 OA
ATOM     39  C   UNL     1      16.089  67.380  -0.675  0.00  0.00    +0.075 A 
ATOM     40  C   UNL     1      17.005  68.371  -0.304  0.00  0.00    +0.136 A 
BRANCH  32  33
ATOM     33  O   UNL     1      17.342  63.739  -2.705  0.00  0.00    -0.506 OA
ATOM     34  H   UNL     1      17.910  64.109  -2.008  0.00  0.00    +0.292 HD
ENDBRANCH  32  33
BRANCH  40  41
ATOM     41  O   UNL     1      18.343  68.247  -0.557  0.00  0.00    -0.505 OA
ATOM     42  H   UNL     1      18.793  69.101  -0.489  0.00  0.00    +0.292 HD
ENDBRANCH  40  41
ENDBRANCH  21  22
BRANCH   3   1
ATOM      1  O   UNL     1      17.852  69.440   2.795  0.00  0.00    -0.505 OA
ATOM      2  H   UNL     1      16.981  69.052   2.624  0.00  0.00    +0.292 HD
ENDBRANCH   3   1
BRANCH   7  11
ATOM     11  O   UNL     1      21.075  71.426   6.198  0.00  0.00    -0.506 OA
ATOM     12  H   UNL     1      21.500  71.624   7.047  0.00  0.00    +0.292 HD
ENDBRANCH   7  11
TORSDOF 5
ENDMDL
MODEL 7
REMARK VINA RESULT:    -8.491     25.982     27.738
REMARK INTER + INTRA:         -10.613
REMARK INTER:                  -9.986
REMARK INTRA:                  -0.627
REMARK UNBOUND:                -0.634
REMARK  Name = C:\Users\HP\Downloads\Anthraquinone_pdb\AD49.pdb
REMARK  7 active torsions:
REMARK  status: ('A' for Active; 'I' for Inactive)
REMARK    1  A    between atoms: O_1  and  C_15
REMARK    2  A    between atoms: O_2  and  C_17
REMARK    3  A    between atoms: O_7  and  C_31
REMARK    4  A    between atoms: O_8  and  C_33
REMARK    5  A    between atoms: C_9  and  C_10
REMARK    6  A    between atoms: C_14  and  C_29
REMARK    7  A    between atoms: C_32  and  C_38
REMARK                            x       y       z     vdW  Elec       q    Type
REMARK                         _______ _______ _______ _____ _____    ______ ____
ROOT
ATOM      3  C   UNL     1       6.693  50.104   9.016  0.00  0.00    +0.136 A 
ATOM      4  C   UNL     1       6.932  50.831   7.843  0.00  0.00    +0.075 A 
ATOM      5  C   UNL     1       8.321  51.151   7.454  0.00  0.00    +0.202 C 
ATOM      6  C   UNL     1       8.560  51.916   6.213  0.00  0.00    +0.075 A 
ATOM      7  C   UNL     1       9.871  52.226   5.832  0.00  0.00    +0.128 A 
ATOM      8  C   UNL     1      10.105  52.948   4.663  0.00  0.00    +0.046 A 
ATOM      9  C   UNL     1       9.036  53.362   3.870  0.00  0.00    +0.004 A 
ATOM     10  C   UNL     1       7.728  53.056   4.246  0.00  0.00    +0.012 A 
ATOM     13  C   UNL     1       7.489  52.332   5.420  0.00  0.00    +0.037 A 
ATOM     14  C   UNL     1       6.100  52.012   5.809  0.00  0.00    +0.195 C 
ATOM     15  O   UNL     1       5.160  52.380   5.115  0.00  0.00    -0.287 OA
ATOM     16  O   UNL     1       9.263  50.787   8.146  0.00  0.00    -0.286 OA
ATOM     17  C   UNL     1       5.861  51.246   7.049  0.00  0.00    +0.037 A 
ATOM     18  C   UNL     1       4.549  50.935   7.429  0.00  0.00    +0.016 A 
ATOM     19  C   UNL     1       4.316  50.211   8.598  0.00  0.00    -0.038 A 
ATOM     20  C   UNL     1       2.900  49.901   8.968  0.00  0.00    +0.044 C 
ATOM     21  C   UNL     1       5.384  49.795   9.393  0.00  0.00    +0.031 A 
ENDROOT
BRANCH  21  22
ATOM     22  C   UNL     1       5.135  49.044  10.607  0.00  0.00    +0.028 A 
ATOM     23  C   UNL     1       5.011  49.736  11.811  0.00  0.00    +0.013 A 
ATOM     24  C   UNL     1       4.771  49.041  12.996  0.00  0.00    +0.013 A 
ATOM     25  C   UNL     1       4.654  47.646  12.978  0.00  0.00    +0.037 A 
ATOM     26  C   UNL     1       4.398  46.917  14.238  0.00  0.00    +0.195 C 
ATOM     27  C   UNL     1       4.274  45.446  14.203  0.00  0.00    +0.037 A 
ATOM     28  C   UNL     1       4.032  44.745  15.391  0.00  0.00    +0.016 A 
ATOM     29  C   UNL     1       3.912  43.355  15.368  0.00  0.00    -0.046 A 
ATOM     30  C   UNL     1       3.654  42.609  16.633  0.00  0.00    +0.044 C 
ATOM     31  C   UNL     1       4.036  42.663  14.164  0.00  0.00    +0.049 A 
ATOM     32  C   UNL     1       4.279  43.358  12.979  0.00  0.00    +0.129 A 
ATOM     35  C   UNL     1       4.398  44.753  12.998  0.00  0.00    +0.075 A 
ATOM     36  C   UNL     1       4.654  45.481  11.738  0.00  0.00    +0.202 C 
ATOM     37  O   UNL     1       4.762  44.869  10.683  0.00  0.00    -0.286 OA
ATOM     38  O   UNL     1       4.292  47.527  15.296  0.00  0.00    -0.287 OA
ATOM     39  C   UNL     1       4.777  46.952  11.772  0.00  0.00    +0.075 A 
ATOM     40  C   UNL     1       5.017  47.653  10.585  0.00  0.00    +0.136 A 
BRANCH  32  33
ATOM     33  O   UNL     1       4.388  42.617  11.839  0.00  0.00    -0.506 OA
ATOM     34  H   UNL     1       4.007  41.735  11.984  0.00  0.00    +0.292 HD
ENDBRANCH  32  33
BRANCH  40  41
ATOM     41  O   UNL     1       5.146  47.015   9.383  0.00  0.00    -0.505 OA
ATOM     42  H   UNL     1       6.044  47.098   9.036  0.00  0.00    +0.292 HD
ENDBRANCH  40  41
ENDBRANCH  21  22
BRANCH   3   1
ATOM      1  O   UNL     1       7.714  49.679   9.818  0.00  0.00    -0.505 OA
ATOM      2  H   UNL     1       7.730  48.717   9.927  0.00  0.00    +0.292 HD
ENDBRANCH   3   1
BRANCH   7  11
ATOM     11  O   UNL     1      10.964  51.853   6.558  0.00  0.00    -0.506 OA
ATOM     12  H   UNL     1      11.511  51.227   6.060  0.00  0.00    +0.292 HD
ENDBRANCH   7  11
TORSDOF 5
ENDMDL
MODEL 8
REMARK VINA RESULT:    -8.486     25.460     27.906
REMARK INTER + INTRA:         -10.608
REMARK INTER:                 -10.168
REMARK INTRA:                  -0.440
REMARK UNBOUND:                -0.634
REMARK  Name = C:\Users\HP\Downloads\Anthraquinone_pdb\AD49.pdb
REMARK  7 active torsions:
REMARK  status: ('A' for Active; 'I' for Inactive)
REMARK    1  A    between atoms: O_1  and  C_15
REMARK    2  A    between atoms: O_2  and  C_17
REMARK    3  A    between atoms: O_7  and  C_31
REMARK    4  A    between atoms: O_8  and  C_33
REMARK    5  A    between atoms: C_9  and  C_10
REMARK    6  A    between atoms: C_14  and  C_29
REMARK    7  A    between atoms: C_32  and  C_38
REMARK                            x       y       z     vdW  Elec       q    Type
REMARK                         _______ _______ _______ _____ _____    ______ ____
ROOT
ATOM      3  C   UNL     1       6.469  50.194   8.381  0.00  0.00    +0.136 A 
ATOM      4  C   UNL     1       7.268  50.824   7.418  0.00  0.00    +0.075 A 
ATOM      5  C   UNL     1       6.628  51.539   6.295  0.00  0.00    +0.202 C 
ATOM      6  C   UNL     1       7.482  52.200   5.287  0.00  0.00    +0.075 A 
ATOM      7  C   UNL     1       6.890  52.882   4.217  0.00  0.00    +0.128 A 
ATOM      8  C   UNL     1       7.688  53.510   3.261  0.00  0.00    +0.046 A 
ATOM      9  C   UNL     1       9.077  53.460   3.369  0.00  0.00    +0.004 A 
ATOM     10  C   UNL     1       9.671  52.781   4.432  0.00  0.00    +0.012 A 
ATOM     13  C   UNL     1       8.873  52.149   5.393  0.00  0.00    +0.037 A 
ATOM     14  C   UNL     1       9.513  51.434   6.517  0.00  0.00    +0.195 C 
ATOM     15  O   UNL     1      10.733  51.387   6.608  0.00  0.00    -0.287 OA
ATOM     16  O   UNL     1       5.409  51.587   6.198  0.00  0.00    -0.286 OA
ATOM     17  C   UNL     1       8.659  50.773   7.525  0.00  0.00    +0.037 A 
ATOM     18  C   UNL     1       9.252  50.093   8.596  0.00  0.00    +0.016 A 
ATOM     19  C   UNL     1       8.453  49.467   9.552  0.00  0.00    -0.038 A 
ATOM     20  C   UNL     1       9.127  48.749  10.679  0.00  0.00    +0.044 C 
ATOM     21  C   UNL     1       7.063  49.516   9.447  0.00  0.00    +0.031 A 
ENDROOT
BRANCH  21  22
ATOM     22  C   UNL     1       6.238  48.863  10.445  0.00  0.00    +0.028 A 
ATOM     23  C   UNL     1       5.652  49.639  11.444  0.00  0.00    +0.013 A 
ATOM     24  C   UNL     1       4.854  49.039  12.418  0.00  0.00    +0.013 A 
ATOM     25  C   UNL     1       4.639  47.656  12.392  0.00  0.00    +0.037 A 
ATOM     26  C   UNL     1       3.790  47.030  13.427  0.00  0.00    +0.195 C 
ATOM     27  C   UNL     1       3.570  45.570  13.386  0.00  0.00    +0.037 A 
ATOM     28  C   UNL     1       2.768  44.964  14.361  0.00  0.00    +0.016 A 
ATOM     29  C   UNL     1       2.554  43.586  14.330  0.00  0.00    -0.046 A 
ATOM     30  C   UNL     1       1.699  42.942  15.369  0.00  0.00    +0.044 C 
ATOM     31  C   UNL     1       3.139  42.810  13.331  0.00  0.00    +0.049 A 
ATOM     32  C   UNL     1       3.940  43.409  12.359  0.00  0.00    +0.129 A 
ATOM     35  C   UNL     1       4.156  44.793  12.385  0.00  0.00    +0.075 A 
ATOM     36  C   UNL     1       5.005  45.419  11.351  0.00  0.00    +0.202 C 
ATOM     37  O   UNL     1       5.517  44.734  10.475  0.00  0.00    -0.286 OA
ATOM     38  O   UNL     1       3.278  47.712  14.306  0.00  0.00    -0.287 OA
ATOM     39  C   UNL     1       5.224  46.879  11.390  0.00  0.00    +0.075 A 
ATOM     40  C   UNL     1       6.025  47.484  10.415  0.00  0.00    +0.136 A 
BRANCH  32  33
ATOM     33  O   UNL     1       4.480  42.590  11.411  0.00  0.00    -0.506 OA
ATOM     34  H   UNL     1       4.151  41.684  11.536  0.00  0.00    +0.292 HD
ENDBRANCH  32  33
BRANCH  40  41
ATOM     41  O   UNL     1       6.618  46.761   9.419  0.00  0.00    -0.505 OA
ATOM     42  H   UNL     1       6.896  45.891   9.734  0.00  0.00    +0.292 HD
ENDBRANCH  40  41
ENDBRANCH  21  22
BRANCH   3   1
ATOM      1  O   UNL     1       5.105  50.222   8.312  0.00  0.00    -0.505 OA
ATOM      2  H   UNL     1       4.693  49.446   8.719  0.00  0.00    +0.292 HD
ENDBRANCH   3   1
BRANCH   7  11
ATOM     11  O   UNL     1       5.539  52.972   4.050  0.00  0.00    -0.506 OA
ATOM     12  H   UNL     1       5.141  52.092   3.975  0.00  0.00    +0.292 HD
ENDBRANCH   7  11
TORSDOF 5
ENDMDL
MODEL 9
REMARK VINA RESULT:    -8.375     25.878     29.520
REMARK INTER + INTRA:         -10.477
REMARK INTER:                  -9.834
REMARK INTRA:                  -0.643
REMARK UNBOUND:                -0.634
REMARK  Name = C:\Users\HP\Downloads\Anthraquinone_pdb\AD49.pdb
REMARK  7 active torsions:
REMARK  status: ('A' for Active; 'I' for Inactive)
REMARK    1  A    between atoms: O_1  and  C_15
REMARK    2  A    between atoms: O_2  and  C_17
REMARK    3  A    between atoms: O_7  and  C_31
REMARK    4  A    between atoms: O_8  and  C_33
REMARK    5  A    between atoms: C_9  and  C_10
REMARK    6  A    between atoms: C_14  and  C_29
REMARK    7  A    between atoms: C_32  and  C_38
REMARK                            x       y       z     vdW  Elec       q    Type
REMARK                         _______ _______ _______ _____ _____    ______ ____
ROOT
ATOM      3  C   UNL     1      16.335  67.839  -0.594  0.00  0.00    +0.136 A 
ATOM      4  C   UNL     1      15.324  66.982  -1.045  0.00  0.00    +0.075 A 
ATOM      5  C   UNL     1      15.672  65.619  -1.499  0.00  0.00    +0.202 C 
ATOM      6  C   UNL     1      14.595  64.725  -1.972  0.00  0.00    +0.075 A 
ATOM      7  C   UNL     1      14.910  63.431  -2.405  0.00  0.00    +0.128 A 
ATOM      8  C   UNL     1      13.901  62.580  -2.852  0.00  0.00    +0.046 A 
ATOM      9  C   UNL     1      12.577  63.014  -2.869  0.00  0.00    +0.004 A 
ATOM     10  C   UNL     1      12.258  64.302  -2.439  0.00  0.00    +0.012 A 
ATOM     13  C   UNL     1      13.269  65.160  -1.990  0.00  0.00    +0.037 A 
ATOM     14  C   UNL     1      12.921  66.522  -1.536  0.00  0.00    +0.195 C 
ATOM     15  O   UNL     1      11.757  66.905  -1.554  0.00  0.00    -0.287 OA
ATOM     16  O   UNL     1      16.833  65.234  -1.484  0.00  0.00    -0.286 OA
ATOM     17  C   UNL     1      13.997  67.417  -1.062  0.00  0.00    +0.037 A 
ATOM     18  C   UNL     1      13.680  68.710  -0.628  0.00  0.00    +0.016 A 
ATOM     19  C   UNL     1      14.691  69.561  -0.179  0.00  0.00    -0.038 A 
ATOM     20  C   UNL     1      14.311  70.934   0.275  0.00  0.00    +0.044 C 
ATOM     21  C   UNL     1      16.017  69.128  -0.161  0.00  0.00    +0.031 A 
ENDROOT
BRANCH  21  22
ATOM     22  C   UNL     1      17.063  70.017   0.306  0.00  0.00    +0.028 A 
ATOM     23  C   UNL     1      17.681  70.866  -0.611  0.00  0.00    +0.013 A 
ATOM     24  C   UNL     1      18.690  71.733  -0.191  0.00  0.00    +0.013 A 
ATOM     25  C   UNL     1      19.084  71.751   1.152  0.00  0.00    +0.037 A 
ATOM     26  C   UNL     1      20.153  72.673   1.588  0.00  0.00    +0.195 C 
ATOM     27  C   UNL     1      20.556  72.684   3.009  0.00  0.00    +0.037 A 
ATOM     28  C   UNL     1      21.568  73.554   3.433  0.00  0.00    +0.016 A 
ATOM     29  C   UNL     1      21.954  73.571   4.774  0.00  0.00    -0.046 A 
ATOM     30  C   UNL     1      23.032  74.497   5.226  0.00  0.00    +0.044 C 
ATOM     31  C   UNL     1      21.336  72.722   5.691  0.00  0.00    +0.049 A 
ATOM     32  C   UNL     1      20.329  71.853   5.271  0.00  0.00    +0.129 A 
ATOM     35  C   UNL     1      19.936  71.834   3.927  0.00  0.00    +0.075 A 
ATOM     36  C   UNL     1      18.868  70.911   3.492  0.00  0.00    +0.202 C 
ATOM     37  O   UNL     1      18.327  70.168   4.300  0.00  0.00    -0.286 OA
ATOM     38  O   UNL     1      20.697  73.417   0.781  0.00  0.00    -0.287 OA
ATOM     39  C   UNL     1      18.464  70.901   2.071  0.00  0.00    +0.075 A 
ATOM     40  C   UNL     1      17.451  70.034   1.647  0.00  0.00    +0.136 A 
BRANCH  32  33
ATOM     33  O   UNL     1      19.767  71.052   6.221  0.00  0.00    -0.506 OA
ATOM     34  H   UNL     1      20.363  70.309   6.417  0.00  0.00    +0.292 HD
ENDBRANCH  32  33
BRANCH  40  41
ATOM     41  O   UNL     1      16.819  69.185   2.512  0.00  0.00    -0.505 OA
ATOM     42  H   UNL     1      16.934  69.469   3.429  0.00  0.00    +0.292 HD
ENDBRANCH  40  41
ENDBRANCH  21  22
BRANCH   3   1
ATOM      1  O   UNL     1      17.644  67.451  -0.560  0.00  0.00    -0.505 OA
ATOM      2  H   UNL     1      18.191  67.918  -1.208  0.00  0.00    +0.292 HD
ENDBRANCH   3   1
BRANCH   7  11
ATOM     11  O   UNL     1      16.183  62.940  -2.415  0.00  0.00    -0.506 OA
ATOM     12  H   UNL     1      16.263  62.203  -3.039  0.00  0.00    +0.292 HD
ENDBRANCH   7  11
TORSDOF 5
ENDMDL
