MODEL 1
REMARK VINA RESULT:    -8.108      0.000      0.000
REMARK INTER + INTRA:         -11.281
REMARK INTER:                 -10.478
REMARK INTRA:                  -0.803
REMARK UNBOUND:                -0.803
REMARK  Name = C:\Users\HP\Downloads\Anthraquinone_pdb\AD50.pdb
REMARK  10 active torsions:
REMARK  status: ('A' for Active; 'I' for Inactive)
REMARK    1  A    between atoms: O_1  and  C_17
REMARK    2  A    between atoms: O_3  and  C_20
REMARK    3  A    between atoms: O_4  and  C_21
REMARK    4  A    between atoms: O_5  and  C_22
REMARK    5  A    between atoms: O_6  and  C_28
REMARK    6  A    between atoms: O_6  and  C_31
REMARK    7  A    between atoms: C_10  and  C_16
REMARK    8  A    between atoms: C_14  and  C_23
REMARK    9  A    between atoms: C_24  and  C_29
REMARK   10  A    between atoms: C_29  and  C_30
REMARK                            x       y       z     vdW  Elec       q    Type
REMARK                         _______ _______ _______ _____ _____    ______ ____
ROOT
ATOM      3  C   UNL     1      20.912  61.182  28.321  0.00  0.00    +0.128 A 
ATOM      4  C   UNL     1      21.595  60.219  27.580  0.00  0.00    +0.050 A 
ATOM      5  C   UNL     1      21.313  58.868  27.763  0.00  0.00    -0.039 A 
ATOM      6  C   UNL     1      22.072  57.870  26.948  0.00  0.00    +0.044 C 
ATOM      7  C   UNL     1      20.345  58.479  28.689  0.00  0.00    -0.004 A 
ATOM     23  C   UNL     1      19.647  59.435  29.443  0.00  0.00    -0.021 A 
ATOM     24  C   UNL     1      18.612  58.967  30.428  0.00  0.00    +0.072 C 
ATOM     25  C   UNL     1      17.908  60.051  31.197  0.00  0.00    -0.029 A 
ATOM     26  C   UNL     1      16.930  59.688  32.136  0.00  0.00    +0.005 A 
ATOM     27  C   UNL     1      16.253  60.660  32.872  0.00  0.00    +0.004 A 
ATOM     28  C   UNL     1      16.545  62.007  32.679  0.00  0.00    +0.046 A 
ATOM     29  C   UNL     1      17.514  62.385  31.750  0.00  0.00    +0.128 A 
ATOM     32  C   UNL     1      18.195  61.407  31.012  0.00  0.00    +0.067 A 
ATOM     33  C   UNL     1      19.220  61.821  30.030  0.00  0.00    +0.201 C 
ATOM     34  O   UNL     1      19.473  63.007  29.864  0.00  0.00    -0.286 OA
ATOM     35  C   UNL     1      19.939  60.790  29.250  0.00  0.00    +0.068 A 
ENDROOT
BRANCH   7   8
ATOM      8  C   UNL     1      20.076  57.058  28.856  0.00  0.00    +0.066 A 
ATOM      9  C   UNL     1      20.939  56.277  29.622  0.00  0.00    +0.132 A 
ATOM     10  C   UNL     1      20.684  54.916  29.783  0.00  0.00    +0.092 A 
ATOM     11  C   UNL     1      19.568  54.338  29.177  0.00  0.00    +0.138 A 
ATOM     12  C   UNL     1      18.706  55.123  28.412  0.00  0.00    +0.101 A 
ATOM     20  C   UNL     1      18.960  56.485  28.251  0.00  0.00    +0.142 A 
BRANCH  12  13
ATOM     13  C   UNL     1      17.539  54.516  27.781  0.00  0.00    +0.167 C 
ATOM     14  C   UNL     1      17.661  53.872  26.407  0.00  0.00    +0.092 C 
ATOM     15  O   UNL     1      16.429  54.511  28.346  0.00  0.00    -0.292 OA
ENDBRANCH  12  13
BRANCH  11  16
ATOM     16  O   UNL     1      19.338  53.006  29.349  0.00  0.00    -0.494 OA
ATOM     17  C   UNL     1      20.452  52.201  29.729  0.00  0.00    +0.277 C 
ENDBRANCH  11  16
BRANCH   9  18
ATOM     18  O   UNL     1      22.039  56.813  30.225  0.00  0.00    -0.506 OA
ATOM     19  H   UNL     1      22.508  57.380  29.588  0.00  0.00    +0.292 HD
ENDBRANCH   9  18
BRANCH  20  21
ATOM     21  O   UNL     1      18.112  57.247  27.499  0.00  0.00    -0.505 OA
ATOM     22  H   UNL     1      17.236  57.319  27.910  0.00  0.00    +0.292 HD
ENDBRANCH  20  21
ENDBRANCH   7   8
BRANCH   3   1
ATOM      1  O   UNL     1      21.238  62.485  28.091  0.00  0.00    -0.506 OA
ATOM      2  H   UNL     1      20.894  62.781  27.235  0.00  0.00    +0.292 HD
ENDBRANCH   3   1
BRANCH  29  30
ATOM     30  O   UNL     1      17.749  63.720  31.611  0.00  0.00    -0.506 OA
ATOM     31  H   UNL     1      18.512  63.859  31.026  0.00  0.00    +0.292 HD
ENDBRANCH  29  30
TORSDOF 7
ENDMDL
MODEL 2
REMARK VINA RESULT:    -7.780      3.451      6.391
REMARK INTER + INTRA:         -10.857
REMARK INTER:                  -9.827
REMARK INTRA:                  -1.030
REMARK UNBOUND:                -0.803
REMARK  Name = C:\Users\HP\Downloads\Anthraquinone_pdb\AD50.pdb
REMARK  10 active torsions:
REMARK  status: ('A' for Active; 'I' for Inactive)
REMARK    1  A    between atoms: O_1  and  C_17
REMARK    2  A    between atoms: O_3  and  C_20
REMARK    3  A    between atoms: O_4  and  C_21
REMARK    4  A    between atoms: O_5  and  C_22
REMARK    5  A    between atoms: O_6  and  C_28
REMARK    6  A    between atoms: O_6  and  C_31
REMARK    7  A    between atoms: C_10  and  C_16
REMARK    8  A    between atoms: C_14  and  C_23
REMARK    9  A    between atoms: C_24  and  C_29
REMARK   10  A    between atoms: C_29  and  C_30
REMARK                            x       y       z     vdW  Elec       q    Type
REMARK                         _______ _______ _______ _____ _____    ______ ____
ROOT
ATOM      3  C   UNL     1      20.754  55.901  28.150  0.00  0.00    +0.128 A 
ATOM      4  C   UNL     1      21.542  55.362  27.133  0.00  0.00    +0.050 A 
ATOM      5  C   UNL     1      22.268  56.202  26.294  0.00  0.00    -0.039 A 
ATOM      6  C   UNL     1      23.097  55.581  25.215  0.00  0.00    +0.044 C 
ATOM      7  C   UNL     1      22.207  57.585  26.471  0.00  0.00    -0.004 A 
ATOM     23  C   UNL     1      21.420  58.144  27.490  0.00  0.00    -0.021 A 
ATOM     24  C   UNL     1      21.387  59.640  27.642  0.00  0.00    +0.072 C 
ATOM     25  C   UNL     1      20.521  60.162  28.756  0.00  0.00    -0.029 A 
ATOM     26  C   UNL     1      20.441  61.548  28.957  0.00  0.00    +0.005 A 
ATOM     27  C   UNL     1      19.650  62.076  29.977  0.00  0.00    +0.004 A 
ATOM     28  C   UNL     1      18.929  61.224  30.809  0.00  0.00    +0.046 A 
ATOM     29  C   UNL     1      18.997  59.844  30.622  0.00  0.00    +0.128 A 
ATOM     32  C   UNL     1      19.792  59.315  29.597  0.00  0.00    +0.067 A 
ATOM     33  C   UNL     1      19.856  57.849  29.410  0.00  0.00    +0.201 C 
ATOM     34  O   UNL     1      19.220  57.104  30.145  0.00  0.00    -0.286 OA
ATOM     35  C   UNL     1      20.695  57.290  28.328  0.00  0.00    +0.068 A 
ENDROOT
BRANCH   7   8
ATOM      8  C   UNL     1      22.978  58.434  25.575  0.00  0.00    +0.066 A 
ATOM      9  C   UNL     1      24.323  58.680  25.842  0.00  0.00    +0.132 A 
ATOM     10  C   UNL     1      25.063  59.493  24.984  0.00  0.00    +0.092 A 
ATOM     11  C   UNL     1      24.456  60.060  23.863  0.00  0.00    +0.138 A 
ATOM     12  C   UNL     1      23.109  59.812  23.599  0.00  0.00    +0.101 A 
ATOM     20  C   UNL     1      22.368  58.997  24.456  0.00  0.00    +0.142 A 
BRANCH  12  13
ATOM     13  C   UNL     1      22.477  60.405  22.425  0.00  0.00    +0.167 C 
ATOM     14  C   UNL     1      22.061  61.869  22.439  0.00  0.00    +0.092 C 
ATOM     15  O   UNL     1      22.268  59.735  21.396  0.00  0.00    -0.292 OA
ENDBRANCH  12  13
BRANCH  11  16
ATOM     16  O   UNL     1      25.198  60.852  23.039  0.00  0.00    -0.494 OA
ATOM     17  C   UNL     1      26.616  60.719  23.118  0.00  0.00    +0.277 C 
ENDBRANCH  11  16
BRANCH   9  18
ATOM     18  O   UNL     1      24.943  58.140  26.930  0.00  0.00    -0.506 OA
ATOM     19  H   UNL     1      25.434  57.346  26.656  0.00  0.00    +0.292 HD
ENDBRANCH   9  18
BRANCH  20  21
ATOM     21  O   UNL     1      21.050  58.760  24.191  0.00  0.00    -0.505 OA
ATOM     22  H   UNL     1      20.909  58.522  23.262  0.00  0.00    +0.292 HD
ENDBRANCH  20  21
ENDBRANCH   7   8
BRANCH   3   1
ATOM      1  O   UNL     1      20.070  55.021  28.934  0.00  0.00    -0.506 OA
ATOM      2  H   UNL     1      19.243  55.413  29.252  0.00  0.00    +0.292 HD
ENDBRANCH   3   1
BRANCH  29  30
ATOM     30  O   UNL     1      18.267  59.069  31.474  0.00  0.00    -0.506 OA
ATOM     31  H   UNL     1      17.571  59.604  31.888  0.00  0.00    +0.292 HD
ENDBRANCH  29  30
TORSDOF 7
ENDMDL
MODEL 3
REMARK VINA RESULT:    -7.659     11.520     15.370
REMARK INTER + INTRA:         -10.701
REMARK INTER:                  -9.599
REMARK INTRA:                  -1.102
REMARK UNBOUND:                -0.803
REMARK  Name = C:\Users\HP\Downloads\Anthraquinone_pdb\AD50.pdb
REMARK  10 active torsions:
REMARK  status: ('A' for Active; 'I' for Inactive)
REMARK    1  A    between atoms: O_1  and  C_17
REMARK    2  A    between atoms: O_3  and  C_20
REMARK    3  A    between atoms: O_4  and  C_21
REMARK    4  A    between atoms: O_5  and  C_22
REMARK    5  A    between atoms: O_6  and  C_28
REMARK    6  A    between atoms: O_6  and  C_31
REMARK    7  A    between atoms: C_10  and  C_16
REMARK    8  A    between atoms: C_14  and  C_23
REMARK    9  A    between atoms: C_24  and  C_29
REMARK   10  A    between atoms: C_29  and  C_30
REMARK                            x       y       z     vdW  Elec       q    Type
REMARK                         _______ _______ _______ _____ _____    ______ ____
ROOT
ATOM      3  C   UNL     1       8.138  69.243  30.018  0.00  0.00    +0.128 A 
ATOM      4  C   UNL     1       9.201  68.385  29.737  0.00  0.00    +0.050 A 
ATOM      5  C   UNL     1       9.893  67.771  30.777  0.00  0.00    -0.039 A 
ATOM      6  C   UNL     1      11.028  66.860  30.430  0.00  0.00    +0.044 C 
ATOM      7  C   UNL     1       9.522  68.013  32.100  0.00  0.00    -0.004 A 
ATOM     23  C   UNL     1       8.455  68.874  32.400  0.00  0.00    -0.021 A 
ATOM     24  C   UNL     1       8.092  69.104  33.841  0.00  0.00    +0.072 C 
ATOM     25  C   UNL     1       6.938  70.038  34.080  0.00  0.00    -0.029 A 
ATOM     26  C   UNL     1       6.544  70.301  35.401  0.00  0.00    +0.005 A 
ATOM     27  C   UNL     1       5.479  71.161  35.670  0.00  0.00    +0.004 A 
ATOM     28  C   UNL     1       4.795  71.769  34.621  0.00  0.00    +0.046 A 
ATOM     29  C   UNL     1       5.174  71.519  33.303  0.00  0.00    +0.128 A 
ATOM     32  C   UNL     1       6.245  70.655  33.034  0.00  0.00    +0.067 A 
ATOM     33  C   UNL     1       6.636  70.397  31.632  0.00  0.00    +0.201 C 
ATOM     34  O   UNL     1       6.031  70.934  30.713  0.00  0.00    -0.286 OA
ATOM     35  C   UNL     1       7.766  69.486  31.347  0.00  0.00    +0.068 A 
ENDROOT
BRANCH   7   8
ATOM      8  C   UNL     1      10.270  67.356  33.162  0.00  0.00    +0.066 A 
ATOM      9  C   UNL     1       9.843  66.120  33.644  0.00  0.00    +0.132 A 
ATOM     10  C   UNL     1      10.557  65.488  34.661  0.00  0.00    +0.092 A 
ATOM     11  C   UNL     1      11.695  66.094  35.195  0.00  0.00    +0.138 A 
ATOM     12  C   UNL     1      12.119  67.331  34.710  0.00  0.00    +0.101 A 
ATOM     20  C   UNL     1      11.405  67.963  33.691  0.00  0.00    +0.142 A 
BRANCH  12  13
ATOM     13  C   UNL     1      13.311  67.960  35.269  0.00  0.00    +0.167 C 
ATOM     14  C   UNL     1      13.248  68.641  36.629  0.00  0.00    +0.092 C 
ATOM     15  O   UNL     1      14.394  67.954  34.655  0.00  0.00    -0.292 OA
ENDBRANCH  12  13
BRANCH  11  16
ATOM     16  O   UNL     1      12.377  65.458  36.189  0.00  0.00    -0.494 OA
ATOM     17  C   UNL     1      13.145  64.315  35.818  0.00  0.00    +0.277 C 
ENDBRANCH  11  16
BRANCH   9  18
ATOM     18  O   UNL     1       8.734  65.504  33.142  0.00  0.00    -0.506 OA
ATOM     19  H   UNL     1       8.972  65.037  32.323  0.00  0.00    +0.292 HD
ENDBRANCH   9  18
BRANCH  20  21
ATOM     21  O   UNL     1      11.827  69.174  33.222  0.00  0.00    -0.505 OA
ATOM     22  H   UNL     1      12.675  69.434  33.614  0.00  0.00    +0.292 HD
ENDBRANCH  20  21
ENDBRANCH   7   8
BRANCH   3   1
ATOM      1  O   UNL     1       7.504  69.811  28.953  0.00  0.00    -0.506 OA
ATOM      2  H   UNL     1       6.652  70.188  29.220  0.00  0.00    +0.292 HD
ENDBRANCH   3   1
BRANCH  29  30
ATOM     30  O   UNL     1       4.461  72.146  32.325  0.00  0.00    -0.506 OA
ATOM     31  H   UNL     1       5.068  72.593  31.713  0.00  0.00    +0.292 HD
ENDBRANCH  29  30
TORSDOF 7
ENDMDL
MODEL 4
REMARK VINA RESULT:    -7.654     11.796     15.337
REMARK INTER + INTRA:         -10.694
REMARK INTER:                  -9.648
REMARK INTRA:                  -1.047
REMARK UNBOUND:                -0.803
REMARK  Name = C:\Users\HP\Downloads\Anthraquinone_pdb\AD50.pdb
REMARK  10 active torsions:
REMARK  status: ('A' for Active; 'I' for Inactive)
REMARK    1  A    between atoms: O_1  and  C_17
REMARK    2  A    between atoms: O_3  and  C_20
REMARK    3  A    between atoms: O_4  and  C_21
REMARK    4  A    between atoms: O_5  and  C_22
REMARK    5  A    between atoms: O_6  and  C_28
REMARK    6  A    between atoms: O_6  and  C_31
REMARK    7  A    between atoms: C_10  and  C_16
REMARK    8  A    between atoms: C_14  and  C_23
REMARK    9  A    between atoms: C_24  and  C_29
REMARK   10  A    between atoms: C_29  and  C_30
REMARK                            x       y       z     vdW  Elec       q    Type
REMARK                         _______ _______ _______ _____ _____    ______ ____
ROOT
ATOM      3  C   UNL     1       8.028  69.262  29.967  0.00  0.00    +0.128 A 
ATOM      4  C   UNL     1       9.044  68.338  29.726  0.00  0.00    +0.050 A 
ATOM      5  C   UNL     1       9.681  67.710  30.793  0.00  0.00    -0.039 A 
ATOM      6  C   UNL     1      10.768  66.728  30.489  0.00  0.00    +0.044 C 
ATOM      7  C   UNL     1       9.301  68.005  32.103  0.00  0.00    -0.004 A 
ATOM     23  C   UNL     1       8.280  68.932  32.362  0.00  0.00    -0.021 A 
ATOM     24  C   UNL     1       7.905  69.217  33.790  0.00  0.00    +0.072 C 
ATOM     25  C   UNL     1       6.803  70.221  33.986  0.00  0.00    -0.029 A 
ATOM     26  C   UNL     1       6.400  70.538  35.292  0.00  0.00    +0.005 A 
ATOM     27  C   UNL     1       5.383  71.464  35.521  0.00  0.00    +0.004 A 
ATOM     28  C   UNL     1       4.754  72.084  34.445  0.00  0.00    +0.046 A 
ATOM     29  C   UNL     1       5.142  71.781  33.141  0.00  0.00    +0.128 A 
ATOM     32  C   UNL     1       6.165  70.851  32.912  0.00  0.00    +0.067 A 
ATOM     33  C   UNL     1       6.567  70.539  31.524  0.00  0.00    +0.201 C 
ATOM     34  O   UNL     1       6.010  71.087  30.581  0.00  0.00    -0.286 OA
ATOM     35  C   UNL     1       7.647  69.557  31.283  0.00  0.00    +0.068 A 
ENDROOT
BRANCH   7   8
ATOM      8  C   UNL     1       9.990  67.330  33.194  0.00  0.00    +0.066 A 
ATOM      9  C   UNL     1      11.191  67.846  33.676  0.00  0.00    +0.132 A 
ATOM     10  C   UNL     1      11.853  67.202  34.721  0.00  0.00    +0.092 A 
ATOM     11  C   UNL     1      11.312  66.043  35.280  0.00  0.00    +0.138 A 
ATOM     12  C   UNL     1      10.109  65.530  34.794  0.00  0.00    +0.101 A 
ATOM     20  C   UNL     1       9.447  66.175  33.749  0.00  0.00    +0.142 A 
BRANCH  12  13
ATOM     13  C   UNL     1       9.547  64.319  35.382  0.00  0.00    +0.167 C 
ATOM     14  C   UNL     1       8.902  64.367  36.760  0.00  0.00    +0.092 C 
ATOM     15  O   UNL     1       9.580  63.231  34.776  0.00  0.00    -0.292 OA
ENDBRANCH  12  13
BRANCH  11  16
ATOM     16  O   UNL     1      11.976  65.430  36.300  0.00  0.00    -0.494 OA
ATOM     17  C   UNL     1      13.203  64.779  35.975  0.00  0.00    +0.277 C 
ENDBRANCH  11  16
BRANCH   9  18
ATOM     18  O   UNL     1      11.743  68.976  33.149  0.00  0.00    -0.506 OA
ATOM     19  H   UNL     1      12.363  68.728  32.441  0.00  0.00    +0.292 HD
ENDBRANCH   9  18
BRANCH  20  21
ATOM     21  O   UNL     1       8.270  65.666  33.280  0.00  0.00    -0.505 OA
ATOM     22  H   UNL     1       7.511  66.197  33.566  0.00  0.00    +0.292 HD
ENDBRANCH  20  21
ENDBRANCH   7   8
BRANCH   3   1
ATOM      1  O   UNL     1       7.447  69.839  28.877  0.00  0.00    -0.506 OA
ATOM      2  H   UNL     1       6.724  70.427  29.142  0.00  0.00    +0.292 HD
ENDBRANCH   3   1
BRANCH  29  30
ATOM     30  O   UNL     1       4.484  72.425  32.135  0.00  0.00    -0.506 OA
ATOM     31  H   UNL     1       4.351  73.357  32.375  0.00  0.00    +0.292 HD
ENDBRANCH  29  30
TORSDOF 7
ENDMDL
MODEL 5
REMARK VINA RESULT:    -7.401      4.905      9.071
REMARK INTER + INTRA:         -10.368
REMARK INTER:                  -9.341
REMARK INTRA:                  -1.027
REMARK UNBOUND:                -0.803
REMARK  Name = C:\Users\HP\Downloads\Anthraquinone_pdb\AD50.pdb
REMARK  10 active torsions:
REMARK  status: ('A' for Active; 'I' for Inactive)
REMARK    1  A    between atoms: O_1  and  C_17
REMARK    2  A    between atoms: O_3  and  C_20
REMARK    3  A    between atoms: O_4  and  C_21
REMARK    4  A    between atoms: O_5  and  C_22
REMARK    5  A    between atoms: O_6  and  C_28
REMARK    6  A    between atoms: O_6  and  C_31
REMARK    7  A    between atoms: C_10  and  C_16
REMARK    8  A    between atoms: C_14  and  C_23
REMARK    9  A    between atoms: C_24  and  C_29
REMARK   10  A    between atoms: C_29  and  C_30
REMARK                            x       y       z     vdW  Elec       q    Type
REMARK                         _______ _______ _______ _____ _____    ______ ____
ROOT
ATOM      3  C   UNL     1      24.084  56.456  23.621  0.00  0.00    +0.128 A 
ATOM      4  C   UNL     1      23.087  56.082  24.521  0.00  0.00    +0.050 A 
ATOM      5  C   UNL     1      22.873  56.832  25.674  0.00  0.00    -0.039 A 
ATOM      6  C   UNL     1      21.794  56.393  26.613  0.00  0.00    +0.044 C 
ATOM      7  C   UNL     1      23.655  57.959  25.928  0.00  0.00    -0.004 A 
ATOM     23  C   UNL     1      24.663  58.350  25.032  0.00  0.00    -0.021 A 
ATOM     24  C   UNL     1      25.481  59.571  25.348  0.00  0.00    +0.072 C 
ATOM     25  C   UNL     1      26.540  59.925  24.341  0.00  0.00    -0.029 A 
ATOM     26  C   UNL     1      27.342  61.052  24.570  0.00  0.00    +0.005 A 
ATOM     27  C   UNL     1      28.337  61.417  23.663  0.00  0.00    +0.004 A 
ATOM     28  C   UNL     1      28.541  60.658  22.514  0.00  0.00    +0.046 A 
ATOM     29  C   UNL     1      27.752  59.534  22.271  0.00  0.00    +0.128 A 
ATOM     32  C   UNL     1      26.754  59.169  23.184  0.00  0.00    +0.067 A 
ATOM     33  C   UNL     1      25.924  57.975  22.914  0.00  0.00    +0.201 C 
ATOM     34  O   UNL     1      26.107  57.311  21.901  0.00  0.00    -0.286 OA
ATOM     35  C   UNL     1      24.870  57.588  23.876  0.00  0.00    +0.068 A 
ENDROOT
BRANCH   7   8
ATOM      8  C   UNL     1      23.405  58.719  27.144  0.00  0.00    +0.066 A 
ATOM      9  C   UNL     1      24.172  58.476  28.281  0.00  0.00    +0.132 A 
ATOM     10  C   UNL     1      23.934  59.202  29.447  0.00  0.00    +0.092 A 
ATOM     11  C   UNL     1      22.927  60.169  29.474  0.00  0.00    +0.138 A 
ATOM     12  C   UNL     1      22.161  60.409  28.333  0.00  0.00    +0.101 A 
ATOM     20  C   UNL     1      22.400  59.682  27.166  0.00  0.00    +0.142 A 
BRANCH  12  13
ATOM     13  C   UNL     1      21.110  61.420  28.365  0.00  0.00    +0.167 C 
ATOM     14  C   UNL     1      19.810  61.149  29.108  0.00  0.00    +0.092 C 
ATOM     15  O   UNL     1      21.252  62.516  27.791  0.00  0.00    -0.292 OA
ENDBRANCH  12  13
BRANCH  11  16
ATOM     16  O   UNL     1      22.712  60.866  30.624  0.00  0.00    -0.494 OA
ATOM     17  C   UNL     1      22.243  60.128  31.751  0.00  0.00    +0.277 C 
ENDBRANCH  11  16
BRANCH   9  18
ATOM     18  O   UNL     1      25.162  57.538  28.285  0.00  0.00    -0.506 OA
ATOM     19  H   UNL     1      25.085  56.996  29.089  0.00  0.00    +0.292 HD
ENDBRANCH   9  18
BRANCH  20  21
ATOM     21  O   UNL     1      21.645  59.923  26.055  0.00  0.00    -0.505 OA
ATOM     22  H   UNL     1      21.587  60.871  25.859  0.00  0.00    +0.292 HD
ENDBRANCH  20  21
ENDBRANCH   7   8
BRANCH   3   1
ATOM      1  O   UNL     1      24.241  55.678  22.513  0.00  0.00    -0.506 OA
ATOM      2  H   UNL     1      25.180  55.521  22.331  0.00  0.00    +0.292 HD
ENDBRANCH   3   1
BRANCH  29  30
ATOM     30  O   UNL     1      28.005  58.838  21.126  0.00  0.00    -0.506 OA
ATOM     31  H   UNL     1      27.917  59.427  20.359  0.00  0.00    +0.292 HD
ENDBRANCH  29  30
TORSDOF 7
ENDMDL
MODEL 6
REMARK VINA RESULT:    -7.267      4.108      8.323
REMARK INTER + INTRA:         -10.194
REMARK INTER:                  -9.149
REMARK INTRA:                  -1.046
REMARK UNBOUND:                -0.803
REMARK  Name = C:\Users\HP\Downloads\Anthraquinone_pdb\AD50.pdb
REMARK  10 active torsions:
REMARK  status: ('A' for Active; 'I' for Inactive)
REMARK    1  A    between atoms: O_1  and  C_17
REMARK    2  A    between atoms: O_3  and  C_20
REMARK    3  A    between atoms: O_4  and  C_21
REMARK    4  A    between atoms: O_5  and  C_22
REMARK    5  A    between atoms: O_6  and  C_28
REMARK    6  A    between atoms: O_6  and  C_31
REMARK    7  A    between atoms: C_10  and  C_16
REMARK    8  A    between atoms: C_14  and  C_23
REMARK    9  A    between atoms: C_24  and  C_29
REMARK   10  A    between atoms: C_29  and  C_30
REMARK                            x       y       z     vdW  Elec       q    Type
REMARK                         _______ _______ _______ _____ _____    ______ ____
ROOT
ATOM      3  C   UNL     1      22.143  56.275  23.870  0.00  0.00    +0.128 A 
ATOM      4  C   UNL     1      21.089  56.023  24.748  0.00  0.00    +0.050 A 
ATOM      5  C   UNL     1      21.111  56.554  26.034  0.00  0.00    -0.039 A 
ATOM      6  C   UNL     1      19.961  56.256  26.943  0.00  0.00    +0.044 C 
ATOM      7  C   UNL     1      22.189  57.339  26.444  0.00  0.00    -0.004 A 
ATOM     23  C   UNL     1      23.258  57.603  25.573  0.00  0.00    -0.021 A 
ATOM     24  C   UNL     1      24.397  58.455  26.061  0.00  0.00    +0.072 C 
ATOM     25  C   UNL     1      25.503  58.691  25.069  0.00  0.00    -0.029 A 
ATOM     26  C   UNL     1      26.600  59.476  25.455  0.00  0.00    +0.005 A 
ATOM     27  C   UNL     1      27.649  59.721  24.569  0.00  0.00    +0.004 A 
ATOM     28  C   UNL     1      27.613  59.184  23.285  0.00  0.00    +0.046 A 
ATOM     29  C   UNL     1      26.531  58.401  22.886  0.00  0.00    +0.128 A 
ATOM     32  C   UNL     1      25.478  58.155  23.778  0.00  0.00    +0.067 A 
ATOM     33  C   UNL     1      24.336  57.324  23.342  0.00  0.00    +0.201 C 
ATOM     34  O   UNL     1      24.309  56.854  22.211  0.00  0.00    -0.286 OA
ATOM     35  C   UNL     1      23.225  57.064  24.283  0.00  0.00    +0.068 A 
ENDROOT
BRANCH   7   8
ATOM      8  C   UNL     1      22.181  57.877  27.797  0.00  0.00    +0.066 A 
ATOM      9  C   UNL     1      21.698  59.164  28.026  0.00  0.00    +0.132 A 
ATOM     10  C   UNL     1      21.690  59.681  29.321  0.00  0.00    +0.092 A 
ATOM     11  C   UNL     1      22.165  58.911  30.383  0.00  0.00    +0.138 A 
ATOM     12  C   UNL     1      22.648  57.624  30.150  0.00  0.00    +0.101 A 
ATOM     20  C   UNL     1      22.656  57.106  28.855  0.00  0.00    +0.142 A 
BRANCH  12  13
ATOM     13  C   UNL     1      23.143  56.821  31.263  0.00  0.00    +0.167 C 
ATOM     14  C   UNL     1      22.169  56.046  32.139  0.00  0.00    +0.092 C 
ATOM     15  O   UNL     1      24.360  56.753  31.518  0.00  0.00    -0.292 OA
ENDBRANCH  12  13
BRANCH  11  16
ATOM     16  O   UNL     1      22.148  59.438  31.640  0.00  0.00    -0.494 OA
ATOM     17  C   UNL     1      21.298  60.562  31.859  0.00  0.00    +0.277 C 
ENDBRANCH  11  16
BRANCH   9  18
ATOM     18  O   UNL     1      21.228  59.939  27.008  0.00  0.00    -0.506 OA
ATOM     19  H   UNL     1      20.526  60.521  27.348  0.00  0.00    +0.292 HD
ENDBRANCH   9  18
BRANCH  20  21
ATOM     21  O   UNL     1      23.130  55.844  28.635  0.00  0.00    -0.505 OA
ATOM     22  H   UNL     1      23.975  55.857  28.160  0.00  0.00    +0.292 HD
ENDBRANCH  20  21
ENDBRANCH   7   8
BRANCH   3   1
ATOM      1  O   UNL     1      22.056  55.724  22.626  0.00  0.00    -0.506 OA
ATOM      2  H   UNL     1      22.094  56.409  21.942  0.00  0.00    +0.292 HD
ENDBRANCH   3   1
BRANCH  29  30
ATOM     30  O   UNL     1      26.561  57.908  21.615  0.00  0.00    -0.506 OA
ATOM     31  H   UNL     1      26.962  57.023  21.617  0.00  0.00    +0.292 HD
ENDBRANCH  29  30
TORSDOF 7
ENDMDL
MODEL 7
REMARK VINA RESULT:    -7.203     23.765     25.402
REMARK INTER + INTRA:         -10.111
REMARK INTER:                  -8.994
REMARK INTRA:                  -1.117
REMARK UNBOUND:                -0.803
REMARK  Name = C:\Users\HP\Downloads\Anthraquinone_pdb\AD50.pdb
REMARK  10 active torsions:
REMARK  status: ('A' for Active; 'I' for Inactive)
REMARK    1  A    between atoms: O_1  and  C_17
REMARK    2  A    between atoms: O_3  and  C_20
REMARK    3  A    between atoms: O_4  and  C_21
REMARK    4  A    between atoms: O_5  and  C_22
REMARK    5  A    between atoms: O_6  and  C_28
REMARK    6  A    between atoms: O_6  and  C_31
REMARK    7  A    between atoms: C_10  and  C_16
REMARK    8  A    between atoms: C_14  and  C_23
REMARK    9  A    between atoms: C_24  and  C_29
REMARK   10  A    between atoms: C_29  and  C_30
REMARK                            x       y       z     vdW  Elec       q    Type
REMARK                         _______ _______ _______ _____ _____    ______ ____
ROOT
ATOM      3  C   UNL     1      23.945  45.553   8.446  0.00  0.00    +0.128 A 
ATOM      4  C   UNL     1      25.119  44.899   8.818  0.00  0.00    +0.050 A 
ATOM      5  C   UNL     1      26.321  45.599   8.872  0.00  0.00    -0.039 A 
ATOM      6  C   UNL     1      27.555  44.856   9.273  0.00  0.00    +0.044 C 
ATOM      7  C   UNL     1      26.349  46.957   8.553  0.00  0.00    -0.004 A 
ATOM     23  C   UNL     1      25.177  47.632   8.178  0.00  0.00    -0.021 A 
ATOM     24  C   UNL     1      25.258  49.096   7.844  0.00  0.00    +0.072 C 
ATOM     25  C   UNL     1      23.961  49.747   7.451  0.00  0.00    -0.029 A 
ATOM     26  C   UNL     1      23.960  51.111   7.125  0.00  0.00    +0.005 A 
ATOM     27  C   UNL     1      22.780  51.756   6.754  0.00  0.00    +0.004 A 
ATOM     28  C   UNL     1      21.586  51.043   6.705  0.00  0.00    +0.046 A 
ATOM     29  C   UNL     1      21.569  49.686   7.025  0.00  0.00    +0.128 A 
ATOM     32  C   UNL     1      22.755  49.040   7.397  0.00  0.00    +0.067 A 
ATOM     33  C   UNL     1      22.724  47.601   7.735  0.00  0.00    +0.201 C 
ATOM     34  O   UNL     1      21.669  46.979   7.691  0.00  0.00    -0.286 OA
ATOM     35  C   UNL     1      23.975  46.918   8.127  0.00  0.00    +0.068 A 
ENDROOT
BRANCH   7   8
ATOM      8  C   UNL     1      27.624  47.658   8.618  0.00  0.00    +0.066 A 
ATOM      9  C   UNL     1      28.037  48.231   9.819  0.00  0.00    +0.132 A 
ATOM     10  C   UNL     1      29.257  48.903   9.884  0.00  0.00    +0.092 A 
ATOM     11  C   UNL     1      30.060  49.002   8.747  0.00  0.00    +0.138 A 
ATOM     12  C   UNL     1      29.642  48.428   7.546  0.00  0.00    +0.101 A 
ATOM     20  C   UNL     1      28.422  47.755   7.482  0.00  0.00    +0.142 A 
BRANCH  12  13
ATOM     13  C   UNL     1      30.485  48.533   6.360  0.00  0.00    +0.167 C 
ATOM     14  C   UNL     1      30.493  49.815   5.539  0.00  0.00    +0.092 C 
ATOM     15  O   UNL     1      31.209  47.587   5.996  0.00  0.00    -0.292 OA
ENDBRANCH  12  13
BRANCH  11  16
ATOM     16  O   UNL     1      31.248  49.664   8.833  0.00  0.00    -0.494 OA
ATOM     17  C   UNL     1      31.265  50.867   9.599  0.00  0.00    +0.277 C 
ENDBRANCH  11  16
BRANCH   9  18
ATOM     18  O   UNL     1      27.274  48.150  10.946  0.00  0.00    -0.506 OA
ATOM     19  H   UNL     1      27.809  48.415  11.714  0.00  0.00    +0.292 HD
ENDBRANCH   9  18
BRANCH  20  21
ATOM     21  O   UNL     1      28.021  47.196   6.302  0.00  0.00    -0.505 OA
ATOM     22  H   UNL     1      28.775  46.879   5.782  0.00  0.00    +0.292 HD
ENDBRANCH  20  21
ENDBRANCH   7   8
BRANCH   3   1
ATOM      1  O   UNL     1      22.805  44.808   8.415  0.00  0.00    -0.506 OA
ATOM      2  H   UNL     1      22.775  44.190   9.161  0.00  0.00    +0.292 HD
ENDBRANCH   3   1
BRANCH  29  30
ATOM     30  O   UNL     1      20.365  49.051   6.957  0.00  0.00    -0.506 OA
ATOM     31  H   UNL     1      20.460  48.223   6.458  0.00  0.00    +0.292 HD
ENDBRANCH  29  30
TORSDOF 7
ENDMDL
MODEL 8
REMARK VINA RESULT:    -7.056     23.967     27.415
REMARK INTER + INTRA:          -9.922
REMARK INTER:                  -9.123
REMARK INTRA:                  -0.799
REMARK UNBOUND:                -0.803
REMARK  Name = C:\Users\HP\Downloads\Anthraquinone_pdb\AD50.pdb
REMARK  10 active torsions:
REMARK  status: ('A' for Active; 'I' for Inactive)
REMARK    1  A    between atoms: O_1  and  C_17
REMARK    2  A    between atoms: O_3  and  C_20
REMARK    3  A    between atoms: O_4  and  C_21
REMARK    4  A    between atoms: O_5  and  C_22
REMARK    5  A    between atoms: O_6  and  C_28
REMARK    6  A    between atoms: O_6  and  C_31
REMARK    7  A    between atoms: C_10  and  C_16
REMARK    8  A    between atoms: C_14  and  C_23
REMARK    9  A    between atoms: C_24  and  C_29
REMARK   10  A    between atoms: C_29  and  C_30
REMARK                            x       y       z     vdW  Elec       q    Type
REMARK                         _______ _______ _______ _____ _____    ______ ____
ROOT
ATOM      3  C   UNL     1       9.786  53.200   4.388  0.00  0.00    +0.128 A 
ATOM      4  C   UNL     1       8.634  53.426   5.139  0.00  0.00    +0.050 A 
ATOM      5  C   UNL     1       8.064  52.388   5.871  0.00  0.00    -0.039 A 
ATOM      6  C   UNL     1       6.826  52.675   6.660  0.00  0.00    +0.044 C 
ATOM      7  C   UNL     1       8.648  51.121   5.853  0.00  0.00    -0.004 A 
ATOM     23  C   UNL     1       9.809  50.876   5.102  0.00  0.00    -0.021 A 
ATOM     24  C   UNL     1      10.401  49.494   5.114  0.00  0.00    +0.072 C 
ATOM     25  C   UNL     1      11.643  49.312   4.286  0.00  0.00    -0.029 A 
ATOM     26  C   UNL     1      12.252  48.048   4.249  0.00  0.00    +0.005 A 
ATOM     27  C   UNL     1      13.404  47.833   3.494  0.00  0.00    +0.004 A 
ATOM     28  C   UNL     1      13.964  48.880   2.767  0.00  0.00    +0.046 A 
ATOM     29  C   UNL     1      13.372  50.142   2.793  0.00  0.00    +0.128 A 
ATOM     32  C   UNL     1      12.213  50.357   3.551  0.00  0.00    +0.067 A 
ATOM     33  C   UNL     1      11.595  51.700   3.571  0.00  0.00    +0.201 C 
ATOM     34  O   UNL     1      12.092  52.618   2.930  0.00  0.00    -0.286 OA
ATOM     35  C   UNL     1      10.372  51.927   4.371  0.00  0.00    +0.068 A 
ENDROOT
BRANCH   7   8
ATOM      8  C   UNL     1       8.024  50.059   6.628  0.00  0.00    +0.066 A 
ATOM      9  C   UNL     1       7.153  49.168   6.004  0.00  0.00    +0.132 A 
ATOM     10  C   UNL     1       6.554  48.150   6.745  0.00  0.00    +0.092 A 
ATOM     11  C   UNL     1       6.827  48.025   8.108  0.00  0.00    +0.138 A 
ATOM     12  C   UNL     1       7.700  48.918   8.729  0.00  0.00    +0.101 A 
ATOM     20  C   UNL     1       8.300  49.937   7.988  0.00  0.00    +0.142 A 
BRANCH  12  13
ATOM     13  C   UNL     1       7.985  48.784  10.153  0.00  0.00    +0.167 C 
ATOM     14  C   UNL     1       9.329  48.240  10.616  0.00  0.00    +0.092 C 
ATOM     15  O   UNL     1       7.144  49.107  11.013  0.00  0.00    -0.292 OA
ENDBRANCH  12  13
BRANCH  11  16
ATOM     16  O   UNL     1       6.231  47.022   8.812  0.00  0.00    -0.494 OA
ATOM     17  C   UNL     1       4.820  47.114   9.002  0.00  0.00    +0.277 C 
ENDBRANCH  11  16
BRANCH   9  18
ATOM     18  O   UNL     1       6.866  49.266   4.675  0.00  0.00    -0.506 OA
ATOM     19  H   UNL     1       7.049  48.412   4.245  0.00  0.00    +0.292 HD
ENDBRANCH   9  18
BRANCH  20  21
ATOM     21  O   UNL     1       9.153  50.807   8.603  0.00  0.00    -0.505 OA
ATOM     22  H   UNL     1       9.090  50.748   9.569  0.00  0.00    +0.292 HD
ENDBRANCH  20  21
ENDBRANCH   7   8
BRANCH   3   1
ATOM      1  O   UNL     1      10.291  54.260   3.696  0.00  0.00    -0.506 OA
ATOM      2  H   UNL     1      11.260  54.245   3.700  0.00  0.00    +0.292 HD
ENDBRANCH   3   1
BRANCH  29  30
ATOM     30  O   UNL     1      13.973  51.121   2.059  0.00  0.00    -0.506 OA
ATOM     31  H   UNL     1      13.408  51.359   1.305  0.00  0.00    +0.292 HD
ENDBRANCH  29  30
TORSDOF 7
ENDMDL
MODEL 9
REMARK VINA RESULT:    -7.003      2.006      6.919
REMARK INTER + INTRA:          -9.853
REMARK INTER:                  -9.201
REMARK INTRA:                  -0.652
REMARK UNBOUND:                -0.803
REMARK  Name = C:\Users\HP\Downloads\Anthraquinone_pdb\AD50.pdb
REMARK  10 active torsions:
REMARK  status: ('A' for Active; 'I' for Inactive)
REMARK    1  A    between atoms: O_1  and  C_17
REMARK    2  A    between atoms: O_3  and  C_20
REMARK    3  A    between atoms: O_4  and  C_21
REMARK    4  A    between atoms: O_5  and  C_22
REMARK    5  A    between atoms: O_6  and  C_28
REMARK    6  A    between atoms: O_6  and  C_31
REMARK    7  A    between atoms: C_10  and  C_16
REMARK    8  A    between atoms: C_14  and  C_23
REMARK    9  A    between atoms: C_24  and  C_29
REMARK   10  A    between atoms: C_29  and  C_30
REMARK                            x       y       z     vdW  Elec       q    Type
REMARK                         _______ _______ _______ _____ _____    ______ ____
ROOT
ATOM      3  C   UNL     1      22.359  56.989  29.505  0.00  0.00    +0.128 A 
ATOM      4  C   UNL     1      22.993  58.046  30.156  0.00  0.00    +0.050 A 
ATOM      5  C   UNL     1      22.240  59.086  30.693  0.00  0.00    -0.039 A 
ATOM      6  C   UNL     1      22.962  60.201  31.381  0.00  0.00    +0.044 C 
ATOM      7  C   UNL     1      20.849  59.070  30.579  0.00  0.00    -0.004 A 
ATOM     23  C   UNL     1      20.195  58.013  29.927  0.00  0.00    -0.021 A 
ATOM     24  C   UNL     1      18.694  58.039  29.830  0.00  0.00    +0.072 C 
ATOM     25  C   UNL     1      18.068  56.873  29.117  0.00  0.00    -0.029 A 
ATOM     26  C   UNL     1      16.672  56.830  28.987  0.00  0.00    +0.005 A 
ATOM     27  C   UNL     1      16.048  55.768  28.333  0.00  0.00    +0.004 A 
ATOM     28  C   UNL     1      16.814  54.734  27.801  0.00  0.00    +0.046 A 
ATOM     29  C   UNL     1      18.202  54.761  27.921  0.00  0.00    +0.128 A 
ATOM     32  C   UNL     1      18.828  55.829  28.578  0.00  0.00    +0.067 A 
ATOM     33  C   UNL     1      20.301  55.846  28.698  0.00  0.00    +0.201 C 
ATOM     34  O   UNL     1      20.970  54.933  28.229  0.00  0.00    -0.286 OA
ATOM     35  C   UNL     1      20.962  56.973  29.391  0.00  0.00    +0.068 A 
ENDROOT
BRANCH   7   8
ATOM      8  C   UNL     1      20.093  60.175  31.150  0.00  0.00    +0.066 A 
ATOM      9  C   UNL     1      19.754  60.154  32.501  0.00  0.00    +0.132 A 
ATOM     10  C   UNL     1      19.029  61.211  33.051  0.00  0.00    +0.092 A 
ATOM     11  C   UNL     1      18.644  62.286  32.247  0.00  0.00    +0.138 A 
ATOM     12  C   UNL     1      18.985  62.302  30.895  0.00  0.00    +0.101 A 
ATOM     20  C   UNL     1      19.711  61.245  30.346  0.00  0.00    +0.142 A 
BRANCH  12  13
ATOM     13  C   UNL     1      18.582  63.427  30.059  0.00  0.00    +0.167 C 
ATOM     14  C   UNL     1      19.636  64.330  29.432  0.00  0.00    +0.092 C 
ATOM     15  O   UNL     1      17.381  63.672  29.840  0.00  0.00    -0.292 OA
ENDBRANCH  12  13
BRANCH  11  16
ATOM     16  O   UNL     1      17.936  63.308  32.806  0.00  0.00    -0.494 OA
ATOM     17  C   UNL     1      16.617  63.010  33.259  0.00  0.00    +0.277 C 
ENDBRANCH  11  16
BRANCH   9  18
ATOM     18  O   UNL     1      20.116  59.118  33.311  0.00  0.00    -0.506 OA
ATOM     19  H   UNL     1      20.983  59.311  33.708  0.00  0.00    +0.292 HD
ENDBRANCH   9  18
BRANCH  20  21
ATOM     21  O   UNL     1      20.041  61.269  29.021  0.00  0.00    -0.505 OA
ATOM     22  H   UNL     1      19.635  60.533  28.537  0.00  0.00    +0.292 HD
ENDBRANCH  20  21
ENDBRANCH   7   8
BRANCH   3   1
ATOM      1  O   UNL     1      23.157  56.004  29.003  0.00  0.00    -0.506 OA
ATOM      2  H   UNL     1      22.787  55.129  29.194  0.00  0.00    +0.292 HD
ENDBRANCH   3   1
BRANCH  29  30
ATOM     30  O   UNL     1      18.890  53.716  27.378  0.00  0.00    -0.506 OA
ATOM     31  H   UNL     1      19.345  54.008  26.571  0.00  0.00    +0.292 HD
ENDBRANCH  29  30
TORSDOF 7
ENDMDL
