MODEL 1
REMARK VINA RESULT:    -7.415      0.000      0.000
REMARK INTER + INTRA:          -8.736
REMARK INTER:                  -8.499
REMARK INTRA:                  -0.236
REMARK UNBOUND:                -0.236
REMARK  Name = C:\Users\HP\Downloads\Anthraquinone_pdb\AD51.pdb
REMARK  5 active torsions:
REMARK  status: ('A' for Active; 'I' for Inactive)
REMARK    1  A    between atoms: O_1  and  C_15
REMARK    2  A    between atoms: O_1  and  C_21
REMARK    3  A    between atoms: O_4  and  C_16
REMARK    4  A    between atoms: C_13  and  C_18
REMARK    5  A    between atoms: C_21  and  C_22
REMARK                            x       y       z     vdW  Elec       q    Type
REMARK                         _______ _______ _______ _____ _____    ______ ____
ROOT
ATOM      5  C   UNL     1      18.809  59.137  30.230  0.00  0.00    +0.135 A 
ATOM      6  C   UNL     1      19.493  58.470  29.213  0.00  0.00    +0.059 A 
ATOM      7  C   UNL     1      18.875  57.416  28.528  0.00  0.00    +0.037 A 
ATOM      8  C   UNL     1      19.606  56.716  27.453  0.00  0.00    +0.195 C 
ATOM      9  C   UNL     1      18.941  55.606  26.738  0.00  0.00    +0.037 A 
ATOM     10  C   UNL     1      19.623  54.935  25.716  0.00  0.00    +0.012 A 
ATOM     11  C   UNL     1      19.002  53.887  25.036  0.00  0.00    +0.004 A 
ATOM     12  C   UNL     1      17.705  53.508  25.371  0.00  0.00    +0.046 A 
ATOM     13  C   UNL     1      17.022  54.174  26.389  0.00  0.00    +0.128 A 
ATOM     16  C   UNL     1      17.640  55.227  27.075  0.00  0.00    +0.074 A 
ATOM     17  C   UNL     1      16.909  55.927  28.149  0.00  0.00    +0.198 C 
ATOM     18  O   UNL     1      15.768  55.611  28.464  0.00  0.00    -0.286 OA
ATOM     19  O   UNL     1      20.746  57.051  27.156  0.00  0.00    -0.287 OA
ATOM     20  C   UNL     1      17.573  57.036  28.864  0.00  0.00    +0.034 A 
ATOM     21  C   UNL     1      16.891  57.709  29.885  0.00  0.00    +0.019 A 
ATOM     22  C   UNL     1      17.511  58.757  30.564  0.00  0.00    -0.007 A 
ATOM     23  C   UNL     1      16.768  59.463  31.652  0.00  0.00    +0.047 C 
ENDROOT
BRANCH  13  14
ATOM     14  O   UNL     1      15.755  53.752  26.668  0.00  0.00    -0.506 OA
ATOM     15  H   UNL     1      15.589  52.881  26.277  0.00  0.00    +0.292 HD
ENDBRANCH  13  14
BRANCH   5   1
ATOM      1  O   UNL     1      19.427  60.160  30.885  0.00  0.00    -0.426 OA
BRANCH   1   2
ATOM      2  C   UNL     1      19.710  61.271  30.075  0.00  0.00    +0.309 C 
ATOM      3  C   UNL     1      18.637  62.307  30.232  0.00  0.00    +0.136 C 
ATOM      4  O   UNL     1      20.685  61.395  29.345  0.00  0.00    -0.251 OA
ENDBRANCH   1   2
ENDBRANCH   5   1
TORSDOF 3
ENDMDL
MODEL 2
REMARK VINA RESULT:    -7.240     16.244     18.494
REMARK INTER + INTRA:          -8.535
REMARK INTER:                  -8.215
REMARK INTRA:                  -0.319
REMARK UNBOUND:                -0.236
REMARK  Name = C:\Users\HP\Downloads\Anthraquinone_pdb\AD51.pdb
REMARK  5 active torsions:
REMARK  status: ('A' for Active; 'I' for Inactive)
REMARK    1  A    between atoms: O_1  and  C_15
REMARK    2  A    between atoms: O_1  and  C_21
REMARK    3  A    between atoms: O_4  and  C_16
REMARK    4  A    between atoms: C_13  and  C_18
REMARK    5  A    between atoms: C_21  and  C_22
REMARK                            x       y       z     vdW  Elec       q    Type
REMARK                         _______ _______ _______ _____ _____    ______ ____
ROOT
ATOM      5  C   UNL     1      15.271  40.939  19.767  0.00  0.00    +0.135 A 
ATOM      6  C   UNL     1      16.136  41.524  20.692  0.00  0.00    +0.059 A 
ATOM      7  C   UNL     1      16.232  41.003  21.989  0.00  0.00    +0.037 A 
ATOM      8  C   UNL     1      17.152  41.628  22.960  0.00  0.00    +0.195 C 
ATOM      9  C   UNL     1      17.244  41.067  24.324  0.00  0.00    +0.037 A 
ATOM     10  C   UNL     1      18.112  41.650  25.254  0.00  0.00    +0.012 A 
ATOM     11  C   UNL     1      18.206  41.126  26.545  0.00  0.00    +0.004 A 
ATOM     12  C   UNL     1      17.436  40.024  26.908  0.00  0.00    +0.046 A 
ATOM     13  C   UNL     1      16.569  39.440  25.984  0.00  0.00    +0.128 A 
ATOM     16  C   UNL     1      16.472  39.961  24.688  0.00  0.00    +0.074 A 
ATOM     17  C   UNL     1      15.553  39.336  23.717  0.00  0.00    +0.198 C 
ATOM     18  O   UNL     1      14.865  38.367  24.012  0.00  0.00    -0.286 OA
ATOM     19  O   UNL     1      17.831  42.596  22.640  0.00  0.00    -0.287 OA
ATOM     20  C   UNL     1      15.461  39.897  22.353  0.00  0.00    +0.034 A 
ATOM     21  C   UNL     1      14.593  39.313  21.421  0.00  0.00    +0.019 A 
ATOM     22  C   UNL     1      14.501  39.836  20.132  0.00  0.00    -0.007 A 
ATOM     23  C   UNL     1      13.569  39.201  19.152  0.00  0.00    +0.047 C 
ENDROOT
BRANCH  13  14
ATOM     14  O   UNL     1      15.843  38.364  26.404  0.00  0.00    -0.506 OA
ATOM     15  H   UNL     1      14.899  38.581  26.443  0.00  0.00    +0.292 HD
ENDBRANCH  13  14
BRANCH   5   1
ATOM      1  O   UNL     1      15.191  41.460  18.511  0.00  0.00    -0.426 OA
BRANCH   1   2
ATOM      2  C   UNL     1      14.746  42.791  18.470  0.00  0.00    +0.309 C 
ATOM      3  C   UNL     1      15.713  43.630  17.689  0.00  0.00    +0.136 C 
ATOM      4  O   UNL     1      13.722  43.220  18.985  0.00  0.00    -0.251 OA
ENDBRANCH   1   2
ENDBRANCH   5   1
TORSDOF 3
ENDMDL
MODEL 3
REMARK VINA RESULT:    -7.114      4.378      5.673
REMARK INTER + INTRA:          -8.390
REMARK INTER:                  -8.041
REMARK INTRA:                  -0.349
REMARK UNBOUND:                -0.236
REMARK  Name = C:\Users\HP\Downloads\Anthraquinone_pdb\AD51.pdb
REMARK  5 active torsions:
REMARK  status: ('A' for Active; 'I' for Inactive)
REMARK    1  A    between atoms: O_1  and  C_15
REMARK    2  A    between atoms: O_1  and  C_21
REMARK    3  A    between atoms: O_4  and  C_16
REMARK    4  A    between atoms: C_13  and  C_18
REMARK    5  A    between atoms: C_21  and  C_22
REMARK                            x       y       z     vdW  Elec       q    Type
REMARK                         _______ _______ _______ _____ _____    ______ ____
ROOT
ATOM      5  C   UNL     1      22.934  57.348  24.195  0.00  0.00    +0.135 A 
ATOM      6  C   UNL     1      22.954  56.514  25.314  0.00  0.00    +0.059 A 
ATOM      7  C   UNL     1      21.759  55.973  25.805  0.00  0.00    +0.037 A 
ATOM      8  C   UNL     1      21.790  55.092  26.989  0.00  0.00    +0.195 C 
ATOM      9  C   UNL     1      20.522  54.527  27.496  0.00  0.00    +0.037 A 
ATOM     10  C   UNL     1      20.538  53.689  28.617  0.00  0.00    +0.012 A 
ATOM     11  C   UNL     1      19.345  53.152  29.102  0.00  0.00    +0.004 A 
ATOM     12  C   UNL     1      18.138  53.447  28.472  0.00  0.00    +0.046 A 
ATOM     13  C   UNL     1      18.118  54.282  27.355  0.00  0.00    +0.128 A 
ATOM     16  C   UNL     1      19.313  54.824  26.864  0.00  0.00    +0.074 A 
ATOM     17  C   UNL     1      19.282  55.705  25.680  0.00  0.00    +0.198 C 
ATOM     18  O   UNL     1      18.234  55.981  25.109  0.00  0.00    -0.286 OA
ATOM     19  O   UNL     1      22.851  54.830  27.542  0.00  0.00    -0.287 OA
ATOM     20  C   UNL     1      20.549  56.269  25.173  0.00  0.00    +0.034 A 
ATOM     21  C   UNL     1      20.535  57.106  24.050  0.00  0.00    +0.019 A 
ATOM     22  C   UNL     1      21.727  57.643  23.565  0.00  0.00    -0.007 A 
ATOM     23  C   UNL     1      21.692  58.535  22.368  0.00  0.00    +0.047 C 
ENDROOT
BRANCH  13  14
ATOM     14  O   UNL     1      16.904  54.532  26.786  0.00  0.00    -0.506 OA
ATOM     15  H   UNL     1      16.439  55.235  27.264  0.00  0.00    +0.292 HD
ENDBRANCH  13  14
BRANCH   5   1
ATOM      1  O   UNL     1      24.107  57.865  23.731  0.00  0.00    -0.426 OA
BRANCH   1   2
ATOM      2  C   UNL     1      24.786  58.669  24.660  0.00  0.00    +0.309 C 
ATOM      3  C   UNL     1      24.126  60.013  24.754  0.00  0.00    +0.136 C 
ATOM      4  O   UNL     1      25.769  58.338  25.310  0.00  0.00    -0.251 OA
ENDBRANCH   1   2
ENDBRANCH   5   1
TORSDOF 3
ENDMDL
MODEL 4
REMARK VINA RESULT:    -6.970     16.170     19.396
REMARK INTER + INTRA:          -8.226
REMARK INTER:                  -8.204
REMARK INTRA:                  -0.021
REMARK UNBOUND:                -0.236
REMARK  Name = C:\Users\HP\Downloads\Anthraquinone_pdb\AD51.pdb
REMARK  5 active torsions:
REMARK  status: ('A' for Active; 'I' for Inactive)
REMARK    1  A    between atoms: O_1  and  C_15
REMARK    2  A    between atoms: O_1  and  C_21
REMARK    3  A    between atoms: O_4  and  C_16
REMARK    4  A    between atoms: C_13  and  C_18
REMARK    5  A    between atoms: C_21  and  C_22
REMARK                            x       y       z     vdW  Elec       q    Type
REMARK                         _______ _______ _______ _____ _____    ______ ____
ROOT
ATOM      5  C   UNL     1      14.458  39.818  19.730  0.00  0.00    +0.135 A 
ATOM      6  C   UNL     1      14.645  39.212  20.973  0.00  0.00    +0.059 A 
ATOM      7  C   UNL     1      15.485  39.807  21.923  0.00  0.00    +0.037 A 
ATOM      8  C   UNL     1      15.676  39.159  23.236  0.00  0.00    +0.195 C 
ATOM      9  C   UNL     1      16.565  39.798  24.229  0.00  0.00    +0.037 A 
ATOM     10  C   UNL     1      16.753  39.194  25.478  0.00  0.00    +0.012 A 
ATOM     11  C   UNL     1      17.590  39.791  26.421  0.00  0.00    +0.004 A 
ATOM     12  C   UNL     1      18.237  40.988  26.123  0.00  0.00    +0.046 A 
ATOM     13  C   UNL     1      18.052  41.593  24.880  0.00  0.00    +0.128 A 
ATOM     16  C   UNL     1      17.213  40.998  23.929  0.00  0.00    +0.074 A 
ATOM     17  C   UNL     1      17.021  41.646  22.617  0.00  0.00    +0.198 C 
ATOM     18  O   UNL     1      17.580  42.697  22.330  0.00  0.00    -0.286 OA
ATOM     19  O   UNL     1      15.105  38.107  23.500  0.00  0.00    -0.287 OA
ATOM     20  C   UNL     1      16.134  41.007  21.624  0.00  0.00    +0.034 A 
ATOM     21  C   UNL     1      15.943  41.612  20.376  0.00  0.00    +0.019 A 
ATOM     22  C   UNL     1      15.105  41.015  19.433  0.00  0.00    -0.007 A 
ATOM     23  C   UNL     1      14.915  41.673  18.106  0.00  0.00    +0.047 C 
ENDROOT
BRANCH  13  14
ATOM     14  O   UNL     1      18.715  42.763  24.651  0.00  0.00    -0.506 OA
ATOM     15  H   UNL     1      19.597  42.741  25.053  0.00  0.00    +0.292 HD
ENDBRANCH  13  14
BRANCH   5   1
ATOM      1  O   UNL     1      13.637  39.224  18.819  0.00  0.00    -0.426 OA
BRANCH   1   2
ATOM      2  C   UNL     1      12.542  38.554  19.386  0.00  0.00    +0.309 C 
ATOM      3  C   UNL     1      12.536  37.119  18.947  0.00  0.00    +0.136 C 
ATOM      4  O   UNL     1      11.707  39.049  20.131  0.00  0.00    -0.251 OA
ENDBRANCH   1   2
ENDBRANCH   5   1
TORSDOF 3
ENDMDL
MODEL 5
REMARK VINA RESULT:    -6.823      2.557      7.134
REMARK INTER + INTRA:          -8.057
REMARK INTER:                  -7.956
REMARK INTRA:                  -0.101
REMARK UNBOUND:                -0.236
REMARK  Name = C:\Users\HP\Downloads\Anthraquinone_pdb\AD51.pdb
REMARK  5 active torsions:
REMARK  status: ('A' for Active; 'I' for Inactive)
REMARK    1  A    between atoms: O_1  and  C_15
REMARK    2  A    between atoms: O_1  and  C_21
REMARK    3  A    between atoms: O_4  and  C_16
REMARK    4  A    between atoms: C_13  and  C_18
REMARK    5  A    between atoms: C_21  and  C_22
REMARK                            x       y       z     vdW  Elec       q    Type
REMARK                         _______ _______ _______ _____ _____    ______ ____
ROOT
ATOM      5  C   UNL     1      18.966  57.459  29.454  0.00  0.00    +0.135 A 
ATOM      6  C   UNL     1      19.549  58.506  30.168  0.00  0.00    +0.059 A 
ATOM      7  C   UNL     1      18.740  59.459  30.800  0.00  0.00    +0.037 A 
ATOM      8  C   UNL     1      19.366  60.564  31.553  0.00  0.00    +0.195 C 
ATOM      9  C   UNL     1      18.500  61.562  32.216  0.00  0.00    +0.037 A 
ATOM     10  C   UNL     1      19.081  62.613  32.934  0.00  0.00    +0.012 A 
ATOM     11  C   UNL     1      18.271  63.559  33.563  0.00  0.00    +0.004 A 
ATOM     12  C   UNL     1      16.884  63.459  33.477  0.00  0.00    +0.046 A 
ATOM     13  C   UNL     1      16.301  62.412  32.761  0.00  0.00    +0.128 A 
ATOM     16  C   UNL     1      17.110  61.460  32.129  0.00  0.00    +0.074 A 
ATOM     17  C   UNL     1      16.484  60.356  31.375  0.00  0.00    +0.198 C 
ATOM     18  O   UNL     1      15.268  60.246  31.284  0.00  0.00    -0.286 OA
ATOM     19  O   UNL     1      20.586  60.651  31.631  0.00  0.00    -0.287 OA
ATOM     20  C   UNL     1      17.350  59.358  30.714  0.00  0.00    +0.034 A 
ATOM     21  C   UNL     1      16.769  58.305  29.996  0.00  0.00    +0.019 A 
ATOM     22  C   UNL     1      17.579  57.359  29.369  0.00  0.00    -0.007 A 
ATOM     23  C   UNL     1      16.942  56.243  28.607  0.00  0.00    +0.047 C 
ENDROOT
BRANCH  13  14
ATOM     14  O   UNL     1      14.938  62.373  32.715  0.00  0.00    -0.506 OA
ATOM     15  H   UNL     1      14.556  62.887  33.443  0.00  0.00    +0.292 HD
ENDBRANCH  13  14
BRANCH   5   1
ATOM      1  O   UNL     1      19.770  56.541  28.847  0.00  0.00    -0.426 OA
BRANCH   1   2
ATOM      2  C   UNL     1      20.195  55.504  29.691  0.00  0.00    +0.309 C 
ATOM      3  C   UNL     1      19.794  54.178  29.115  0.00  0.00    +0.136 C 
ATOM      4  O   UNL     1      20.806  55.641  30.742  0.00  0.00    -0.251 OA
ENDBRANCH   1   2
ENDBRANCH   5   1
TORSDOF 3
ENDMDL
MODEL 6
REMARK VINA RESULT:    -6.607      3.854      6.130
REMARK INTER + INTRA:          -7.809
REMARK INTER:                  -7.627
REMARK INTRA:                  -0.183
REMARK UNBOUND:                -0.236
REMARK  Name = C:\Users\HP\Downloads\Anthraquinone_pdb\AD51.pdb
REMARK  5 active torsions:
REMARK  status: ('A' for Active; 'I' for Inactive)
REMARK    1  A    between atoms: O_1  and  C_15
REMARK    2  A    between atoms: O_1  and  C_21
REMARK    3  A    between atoms: O_4  and  C_16
REMARK    4  A    between atoms: C_13  and  C_18
REMARK    5  A    between atoms: C_21  and  C_22
REMARK                            x       y       z     vdW  Elec       q    Type
REMARK                         _______ _______ _______ _____ _____    ______ ____
ROOT
ATOM      5  C   UNL     1      19.925  56.155  28.350  0.00  0.00    +0.135 A 
ATOM      6  C   UNL     1      20.470  57.281  27.732  0.00  0.00    +0.059 A 
ATOM      7  C   UNL     1      21.513  57.138  26.809  0.00  0.00    +0.037 A 
ATOM      8  C   UNL     1      22.083  58.335  26.160  0.00  0.00    +0.195 C 
ATOM      9  C   UNL     1      23.184  58.169  25.187  0.00  0.00    +0.037 A 
ATOM     10  C   UNL     1      23.732  59.296  24.564  0.00  0.00    +0.012 A 
ATOM     11  C   UNL     1      24.771  59.147  23.644  0.00  0.00    +0.004 A 
ATOM     12  C   UNL     1      25.263  57.879  23.345  0.00  0.00    +0.046 A 
ATOM     13  C   UNL     1      24.719  56.753  23.964  0.00  0.00    +0.128 A 
ATOM     16  C   UNL     1      23.676  56.896  24.887  0.00  0.00    +0.074 A 
ATOM     17  C   UNL     1      23.106  55.699  25.537  0.00  0.00    +0.198 C 
ATOM     18  O   UNL     1      23.522  54.574  25.292  0.00  0.00    -0.286 OA
ATOM     19  O   UNL     1      21.650  59.451  26.421  0.00  0.00    -0.287 OA
ATOM     20  C   UNL     1      22.006  55.866  26.509  0.00  0.00    +0.034 A 
ATOM     21  C   UNL     1      21.456  54.738  27.131  0.00  0.00    +0.019 A 
ATOM     22  C   UNL     1      20.417  54.887  28.050  0.00  0.00    -0.007 A 
ATOM     23  C   UNL     1      19.844  53.674  28.705  0.00  0.00    +0.047 C 
ENDROOT
BRANCH  13  14
ATOM     14  O   UNL     1      25.247  55.541  23.627  0.00  0.00    -0.506 OA
ATOM     15  H   UNL     1      24.549  54.873  23.545  0.00  0.00    +0.292 HD
ENDBRANCH  13  14
BRANCH   5   1
ATOM      1  O   UNL     1      18.910  56.315  29.245  0.00  0.00    -0.426 OA
BRANCH   1   2
ATOM      2  C   UNL     1      17.843  57.093  28.769  0.00  0.00    +0.309 C 
ATOM      3  C   UNL     1      17.456  58.116  29.795  0.00  0.00    +0.136 C 
ATOM      4  O   UNL     1      17.298  56.971  27.679  0.00  0.00    -0.251 OA
ENDBRANCH   1   2
ENDBRANCH   5   1
TORSDOF 3
ENDMDL
MODEL 7
REMARK VINA RESULT:    -6.554     28.408     29.907
REMARK INTER + INTRA:          -7.749
REMARK INTER:                  -7.396
REMARK INTRA:                  -0.353
REMARK UNBOUND:                -0.236
REMARK  Name = C:\Users\HP\Downloads\Anthraquinone_pdb\AD51.pdb
REMARK  5 active torsions:
REMARK  status: ('A' for Active; 'I' for Inactive)
REMARK    1  A    between atoms: O_1  and  C_15
REMARK    2  A    between atoms: O_1  and  C_21
REMARK    3  A    between atoms: O_4  and  C_16
REMARK    4  A    between atoms: C_13  and  C_18
REMARK    5  A    between atoms: C_21  and  C_22
REMARK                            x       y       z     vdW  Elec       q    Type
REMARK                         _______ _______ _______ _____ _____    ______ ____
ROOT
ATOM      5  C   UNL     1      16.283  69.153   0.192  0.00  0.00    +0.135 A 
ATOM      6  C   UNL     1      17.354  70.042   0.288  0.00  0.00    +0.059 A 
ATOM      7  C   UNL     1      17.834  70.427   1.546  0.00  0.00    +0.037 A 
ATOM      8  C   UNL     1      18.967  71.369   1.638  0.00  0.00    +0.195 C 
ATOM      9  C   UNL     1      19.465  71.766   2.972  0.00  0.00    +0.037 A 
ATOM     10  C   UNL     1      20.539  72.657   3.073  0.00  0.00    +0.012 A 
ATOM     11  C   UNL     1      21.015  73.036   4.329  0.00  0.00    +0.004 A 
ATOM     12  C   UNL     1      20.423  72.528   5.483  0.00  0.00    +0.046 A 
ATOM     13  C   UNL     1      19.351  71.640   5.387  0.00  0.00    +0.128 A 
ATOM     16  C   UNL     1      18.870  71.256   4.129  0.00  0.00    +0.074 A 
ATOM     17  C   UNL     1      17.737  70.314   4.037  0.00  0.00    +0.198 C 
ATOM     18  O   UNL     1      17.198  69.855   5.037  0.00  0.00    -0.286 OA
ATOM     19  O   UNL     1      19.490  71.814   0.624  0.00  0.00    -0.287 OA
ATOM     20  C   UNL     1      17.240  69.918   2.704  0.00  0.00    +0.034 A 
ATOM     21  C   UNL     1      16.166  69.024   2.602  0.00  0.00    +0.019 A 
ATOM     22  C   UNL     1      15.692  68.645   1.347  0.00  0.00    -0.007 A 
ATOM     23  C   UNL     1      14.544  67.693   1.258  0.00  0.00    +0.047 C 
ENDROOT
BRANCH  13  14
ATOM     14  O   UNL     1      18.816  71.181   6.555  0.00  0.00    -0.506 OA
ATOM     15  H   UNL     1      18.955  70.225   6.643  0.00  0.00    +0.292 HD
ENDBRANCH  13  14
BRANCH   5   1
ATOM      1  O   UNL     1      15.830  68.790  -1.041  0.00  0.00    -0.426 OA
BRANCH   1   2
ATOM      2  C   UNL     1      16.797  68.170  -1.847  0.00  0.00    +0.309 C 
ATOM      3  C   UNL     1      17.038  66.767  -1.373  0.00  0.00    +0.136 C 
ATOM      4  O   UNL     1      17.368  68.681  -2.802  0.00  0.00    -0.251 OA
ENDBRANCH   1   2
ENDBRANCH   5   1
TORSDOF 3
ENDMDL
MODEL 8
REMARK VINA RESULT:    -6.502     23.706     26.404
REMARK INTER + INTRA:          -7.689
REMARK INTER:                  -7.335
REMARK INTRA:                  -0.353
REMARK UNBOUND:                -0.236
REMARK  Name = C:\Users\HP\Downloads\Anthraquinone_pdb\AD51.pdb
REMARK  5 active torsions:
REMARK  status: ('A' for Active; 'I' for Inactive)
REMARK    1  A    between atoms: O_1  and  C_15
REMARK    2  A    between atoms: O_1  and  C_21
REMARK    3  A    between atoms: O_4  and  C_16
REMARK    4  A    between atoms: C_13  and  C_18
REMARK    5  A    between atoms: C_21  and  C_22
REMARK                            x       y       z     vdW  Elec       q    Type
REMARK                         _______ _______ _______ _____ _____    ______ ____
ROOT
ATOM      5  C   UNL     1      22.123  60.548   1.575  0.00  0.00    +0.135 A 
ATOM      6  C   UNL     1      22.619  60.429   2.873  0.00  0.00    +0.059 A 
ATOM      7  C   UNL     1      22.996  61.573   3.587  0.00  0.00    +0.037 A 
ATOM      8  C   UNL     1      23.520  61.437   4.961  0.00  0.00    +0.195 C 
ATOM      9  C   UNL     1      23.912  62.653   5.703  0.00  0.00    +0.037 A 
ATOM     10  C   UNL     1      24.409  62.537   7.007  0.00  0.00    +0.012 A 
ATOM     11  C   UNL     1      24.781  63.681   7.715  0.00  0.00    +0.004 A 
ATOM     12  C   UNL     1      24.657  64.937   7.127  0.00  0.00    +0.046 A 
ATOM     13  C   UNL     1      24.162  65.057   5.828  0.00  0.00    +0.128 A 
ATOM     16  C   UNL     1      23.787  63.912   5.113  0.00  0.00    +0.074 A 
ATOM     17  C   UNL     1      23.263  64.049   3.740  0.00  0.00    +0.198 C 
ATOM     18  O   UNL     1      23.146  65.142   3.200  0.00  0.00    -0.286 OA
ATOM     19  O   UNL     1      23.626  60.332   5.479  0.00  0.00    -0.287 OA
ATOM     20  C   UNL     1      22.871  62.833   2.998  0.00  0.00    +0.034 A 
ATOM     21  C   UNL     1      22.372  62.948   1.695  0.00  0.00    +0.019 A 
ATOM     22  C   UNL     1      21.999  61.805   0.988  0.00  0.00    -0.007 A 
ATOM     23  C   UNL     1      21.470  61.947  -0.402  0.00  0.00    +0.047 C 
ENDROOT
BRANCH  13  14
ATOM     14  O   UNL     1      24.068  66.316   5.311  0.00  0.00    -0.506 OA
ATOM     15  H   UNL     1      24.354  66.329   4.385  0.00  0.00    +0.292 HD
ENDBRANCH  13  14
BRANCH   5   1
ATOM      1  O   UNL     1      21.762  59.423   0.895  0.00  0.00    -0.426 OA
BRANCH   1   2
ATOM      2  C   UNL     1      20.800  58.640   1.553  0.00  0.00    +0.309 C 
ATOM      3  C   UNL     1      19.459  59.309   1.482  0.00  0.00    +0.136 C 
ATOM      4  O   UNL     1      21.006  57.568   2.106  0.00  0.00    -0.251 OA
ENDBRANCH   1   2
ENDBRANCH   5   1
TORSDOF 3
ENDMDL
MODEL 9
REMARK VINA RESULT:    -6.409     21.856     24.425
REMARK INTER + INTRA:          -7.583
REMARK INTER:                  -7.472
REMARK INTRA:                  -0.110
REMARK UNBOUND:                -0.236
REMARK  Name = C:\Users\HP\Downloads\Anthraquinone_pdb\AD51.pdb
REMARK  5 active torsions:
REMARK  status: ('A' for Active; 'I' for Inactive)
REMARK    1  A    between atoms: O_1  and  C_15
REMARK    2  A    between atoms: O_1  and  C_21
REMARK    3  A    between atoms: O_4  and  C_16
REMARK    4  A    between atoms: C_13  and  C_18
REMARK    5  A    between atoms: C_21  and  C_22
REMARK                            x       y       z     vdW  Elec       q    Type
REMARK                         _______ _______ _______ _____ _____    ______ ____
ROOT
ATOM      5  C   UNL     1      22.308  50.669   7.492  0.00  0.00    +0.135 A 
ATOM      6  C   UNL     1      22.566  51.592   6.477  0.00  0.00    +0.059 A 
ATOM      7  C   UNL     1      21.632  51.785   5.452  0.00  0.00    +0.037 A 
ATOM      8  C   UNL     1      21.913  52.764   4.384  0.00  0.00    +0.195 C 
ATOM      9  C   UNL     1      20.918  52.959   3.308  0.00  0.00    +0.037 A 
ATOM     10  C   UNL     1      21.173  53.885   2.290  0.00  0.00    +0.012 A 
ATOM     11  C   UNL     1      20.238  54.075   1.271  0.00  0.00    +0.004 A 
ATOM     12  C   UNL     1      19.052  53.345   1.267  0.00  0.00    +0.046 A 
ATOM     13  C   UNL     1      18.794  52.421   2.280  0.00  0.00    +0.128 A 
ATOM     16  C   UNL     1      19.729  52.227   3.305  0.00  0.00    +0.074 A 
ATOM     17  C   UNL     1      19.447  51.248   4.373  0.00  0.00    +0.198 C 
ATOM     18  O   UNL     1      18.413  50.593   4.390  0.00  0.00    -0.286 OA
ATOM     19  O   UNL     1      22.956  53.408   4.388  0.00  0.00    -0.287 OA
ATOM     20  C   UNL     1      20.442  51.053   5.448  0.00  0.00    +0.034 A 
ATOM     21  C   UNL     1      20.187  50.128   6.468  0.00  0.00    +0.019 A 
ATOM     22  C   UNL     1      21.121  49.939   7.486  0.00  0.00    -0.007 A 
ATOM     23  C   UNL     1      20.833  48.947   8.565  0.00  0.00    +0.047 C 
ENDROOT
BRANCH  13  14
ATOM     14  O   UNL     1      17.615  51.739   2.215  0.00  0.00    -0.506 OA
ATOM     15  H   UNL     1      17.422  51.472   1.303  0.00  0.00    +0.292 HD
ENDBRANCH  13  14
BRANCH   5   1
ATOM      1  O   UNL     1      23.229  50.494   8.481  0.00  0.00    -0.426 OA
BRANCH   1   2
ATOM      2  C   UNL     1      24.227  49.556   8.175  0.00  0.00    +0.309 C 
ATOM      3  C   UNL     1      24.379  48.582   9.306  0.00  0.00    +0.136 C 
ATOM      4  O   UNL     1      24.885  49.520   7.143  0.00  0.00    -0.251 OA
ENDBRANCH   1   2
ENDBRANCH   5   1
TORSDOF 3
ENDMDL
