MODEL 1
REMARK VINA RESULT:   -10.678      0.000      0.000
REMARK INTER + INTRA:         -12.893
REMARK INTER:                 -12.238
REMARK INTRA:                  -0.654
REMARK UNBOUND:                -0.654
REMARK  Name = C:\Users\HP\Downloads\Anthraquinone_pdb\AD53.pdb
REMARK  6 active torsions:
REMARK  status: ('A' for Active; 'I' for Inactive)
REMARK    1  A    between atoms: C_1  and  C_2
REMARK    2  A    between atoms: C_2  and  C_3
REMARK    3  A    between atoms: C_13  and  C_14
REMARK    4  A    between atoms: C_15  and  O_16
REMARK    5  A    between atoms: C_23  and  O_24
REMARK    6  A    between atoms: C_27  and  O_28
REMARK                            x       y       z     vdW  Elec       q    Type
REMARK                         _______ _______ _______ _____ _____    ______ ____
ROOT
ATOM      1  C   UNL     1      19.687  62.488  32.280  0.00  0.00    +0.060 C 
ATOM      2  C   UNL     1      18.786  61.629  31.385  0.00  0.00    +0.123 C 
ATOM      3  O   UNL     1      19.630  60.587  30.838  0.00  0.00    -0.482 OA
ATOM      4  C   UNL     1      18.970  59.478  30.374  0.00  0.00    +0.130 A 
ATOM      5  C   UNL     1      19.627  58.707  29.417  0.00  0.00    +0.058 A 
ATOM      6  C   UNL     1      18.984  57.604  28.852  0.00  0.00    +0.037 A 
ATOM      7  C   UNL     1      17.691  57.269  29.259  0.00  0.00    +0.034 A 
ATOM      8  C   UNL     1      17.055  58.008  30.270  0.00  0.00    +0.024 A 
ATOM      9  C   UNL     1      16.990  56.141  28.620  0.00  0.00    +0.195 C 
ATOM     10  O   UNL     1      15.886  55.791  29.022  0.00  0.00    -0.287 OA
ATOM     11  C   UNL     1      17.617  55.468  27.455  0.00  0.00    +0.034 A 
ATOM     12  C   UNL     1      16.879  54.496  26.768  0.00  0.00    +0.012 A 
ATOM     13  C   UNL     1      17.422  53.867  25.651  0.00  0.00    +0.001 A 
ATOM     14  C   UNL     1      18.694  54.223  25.200  0.00  0.00    +0.009 A 
ATOM     15  C   UNL     1      19.451  55.201  25.872  0.00  0.00    +0.001 A 
ATOM     34  C   UNL     1      18.909  55.808  27.031  0.00  0.00    +0.041 A 
ATOM     35  C   UNL     1      19.680  56.789  27.838  0.00  0.00    +0.195 C 
ATOM     36  O   UNL     1      20.891  56.913  27.704  0.00  0.00    -0.287 OA
ATOM     37  C   UNL     1      17.701  59.110  30.838  0.00  0.00    +0.017 A 
ATOM     38  C   UNL     1      17.098  59.877  31.921  0.00  0.00    +0.011 C 
ATOM     39  C   UNL     1      17.626  61.077  32.188  0.00  0.00    +0.020 C 
ATOM     40  C   UNL     1      18.264  62.495  30.226  0.00  0.00    +0.060 C 
ENDROOT
BRANCH  15  16
ATOM     16  C   UNL     1      20.759  55.580  25.287  0.00  0.00    +0.075 C 
ATOM     17  C   UNL     1      20.862  56.758  24.388  0.00  0.00    +0.202 C 
ATOM     18  O   UNL     1      19.880  57.447  24.117  0.00  0.00    -0.286 OA
ATOM     19  C   UNL     1      22.188  57.148  23.859  0.00  0.00    +0.078 A 
ATOM     20  C   UNL     1      22.328  58.351  23.145  0.00  0.00    +0.129 A 
ATOM     21  C   UNL     1      23.564  58.745  22.638  0.00  0.00    +0.050 A 
ATOM     22  C   UNL     1      24.677  57.934  22.825  0.00  0.00    +0.050 A 
ATOM     23  C   UNL     1      24.553  56.743  23.545  0.00  0.00    +0.129 A 
ATOM     28  C   UNL     1      23.312  56.348  24.082  0.00  0.00    +0.081 A 
ATOM     29  C   UNL     1      23.172  55.133  24.916  0.00  0.00    +0.232 C 
ATOM     30  O   UNL     1      24.076  54.336  25.152  0.00  0.00    -0.283 OA
ATOM     31  C   UNL     1      21.857  54.859  25.559  0.00  0.00    +0.176 C 
BRANCH  23  24
ATOM     24  O   UNL     1      25.674  55.981  23.727  0.00  0.00    -0.506 OA
ATOM     25  H   UNL     1      26.455  56.546  23.838  0.00  0.00    +0.292 HD
ENDBRANCH  23  24
BRANCH  20  26
ATOM     26  O   UNL     1      21.293  59.218  22.918  0.00  0.00    -0.506 OA
ATOM     27  H   UNL     1      21.376  59.567  22.001  0.00  0.00    +0.292 HD
ENDBRANCH  20  26
BRANCH  31  32
ATOM     32  O   UNL     1      21.836  53.790  26.449  0.00  0.00    -0.503 OA
ATOM     33  H   UNL     1      21.262  54.099  27.186  0.00  0.00    +0.292 HD
ENDBRANCH  31  32
ENDBRANCH  15  16
TORSDOF 4
ENDMDL
MODEL 2
REMARK VINA RESULT:    -9.112      3.413      6.784
REMARK INTER + INTRA:         -11.098
REMARK INTER:                 -10.556
REMARK INTRA:                  -0.543
REMARK UNBOUND:                -0.654
REMARK  Name = C:\Users\HP\Downloads\Anthraquinone_pdb\AD53.pdb
REMARK  6 active torsions:
REMARK  status: ('A' for Active; 'I' for Inactive)
REMARK    1  A    between atoms: C_1  and  C_2
REMARK    2  A    between atoms: C_2  and  C_3
REMARK    3  A    between atoms: C_13  and  C_14
REMARK    4  A    between atoms: C_15  and  O_16
REMARK    5  A    between atoms: C_23  and  O_24
REMARK    6  A    between atoms: C_27  and  O_28
REMARK                            x       y       z     vdW  Elec       q    Type
REMARK                         _______ _______ _______ _____ _____    ______ ____
ROOT
ATOM      1  C   UNL     1      24.063  61.953  32.779  0.00  0.00    +0.060 C 
ATOM      2  C   UNL     1      24.710  61.199  31.611  0.00  0.00    +0.123 C 
ATOM      3  O   UNL     1      23.628  60.806  30.732  0.00  0.00    -0.482 OA
ATOM      4  C   UNL     1      23.994  60.514  29.443  0.00  0.00    +0.130 A 
ATOM      5  C   UNL     1      23.147  59.675  28.721  0.00  0.00    +0.058 A 
ATOM      6  C   UNL     1      23.495  59.283  27.427  0.00  0.00    +0.037 A 
ATOM      7  C   UNL     1      24.682  59.743  26.856  0.00  0.00    +0.034 A 
ATOM      8  C   UNL     1      25.504  60.640  27.561  0.00  0.00    +0.024 A 
ATOM      9  C   UNL     1      25.079  59.281  25.514  0.00  0.00    +0.195 C 
ATOM     10  O   UNL     1      26.080  59.737  24.973  0.00  0.00    -0.287 OA
ATOM     11  C   UNL     1      24.278  58.223  24.849  0.00  0.00    +0.034 A 
ATOM     12  C   UNL     1      24.745  57.690  23.641  0.00  0.00    +0.012 A 
ATOM     13  C   UNL     1      24.038  56.674  23.005  0.00  0.00    +0.001 A 
ATOM     14  C   UNL     1      22.873  56.167  23.586  0.00  0.00    +0.009 A 
ATOM     15  C   UNL     1      22.389  56.683  24.802  0.00  0.00    +0.001 A 
ATOM     34  C   UNL     1      23.091  57.744  25.422  0.00  0.00    +0.041 A 
ATOM     35  C   UNL     1      22.597  58.394  26.664  0.00  0.00    +0.195 C 
ATOM     36  O   UNL     1      21.446  58.234  27.053  0.00  0.00    -0.287 OA
ATOM     37  C   UNL     1      25.152  61.036  28.855  0.00  0.00    +0.017 A 
ATOM     38  C   UNL     1      25.950  61.998  29.604  0.00  0.00    +0.011 C 
ATOM     39  C   UNL     1      25.728  62.083  30.921  0.00  0.00    +0.020 C 
ATOM     40  C   UNL     1      25.389  59.930  32.152  0.00  0.00    +0.060 C 
ENDROOT
BRANCH  15  16
ATOM     16  C   UNL     1      21.191  56.040  25.393  0.00  0.00    +0.075 C 
ATOM     17  C   UNL     1      21.336  55.096  26.531  0.00  0.00    +0.202 C 
ATOM     18  O   UNL     1      22.436  54.835  27.013  0.00  0.00    -0.286 OA
ATOM     19  C   UNL     1      20.121  54.508  27.139  0.00  0.00    +0.078 A 
ATOM     20  C   UNL     1      20.229  53.747  28.315  0.00  0.00    +0.129 A 
ATOM     21  C   UNL     1      19.103  53.183  28.911  0.00  0.00    +0.050 A 
ATOM     22  C   UNL     1      17.853  53.361  28.330  0.00  0.00    +0.050 A 
ATOM     23  C   UNL     1      17.732  54.126  27.168  0.00  0.00    +0.129 A 
ATOM     28  C   UNL     1      18.861  54.720  26.572  0.00  0.00    +0.081 A 
ATOM     29  C   UNL     1      18.748  55.602  25.387  0.00  0.00    +0.232 C 
ATOM     30  O   UNL     1      17.704  55.834  24.784  0.00  0.00    -0.283 OA
ATOM     31  C   UNL     1      19.970  56.299  24.901  0.00  0.00    +0.176 C 
BRANCH  23  24
ATOM     24  O   UNL     1      16.483  54.297  26.636  0.00  0.00    -0.506 OA
ATOM     25  H   UNL     1      15.811  53.898  27.211  0.00  0.00    +0.292 HD
ENDBRANCH  23  24
BRANCH  20  26
ATOM     26  O   UNL     1      21.414  53.525  28.964  0.00  0.00    -0.506 OA
ATOM     27  H   UNL     1      21.530  52.553  29.074  0.00  0.00    +0.292 HD
ENDBRANCH  20  26
BRANCH  31  32
ATOM     32  O   UNL     1      19.766  57.228  23.885  0.00  0.00    -0.503 OA
ATOM     33  H   UNL     1      19.314  57.980  24.330  0.00  0.00    +0.292 HD
ENDBRANCH  31  32
ENDBRANCH  15  16
TORSDOF 4
ENDMDL
MODEL 3
REMARK VINA RESULT:    -8.933      2.083      2.368
REMARK INTER + INTRA:         -10.894
REMARK INTER:                 -10.903
REMARK INTRA:                   0.009
REMARK UNBOUND:                -0.654
REMARK  Name = C:\Users\HP\Downloads\Anthraquinone_pdb\AD53.pdb
REMARK  6 active torsions:
REMARK  status: ('A' for Active; 'I' for Inactive)
REMARK    1  A    between atoms: C_1  and  C_2
REMARK    2  A    between atoms: C_2  and  C_3
REMARK    3  A    between atoms: C_13  and  C_14
REMARK    4  A    between atoms: C_15  and  O_16
REMARK    5  A    between atoms: C_23  and  O_24
REMARK    6  A    between atoms: C_27  and  O_28
REMARK                            x       y       z     vdW  Elec       q    Type
REMARK                         _______ _______ _______ _____ _____    ______ ____
ROOT
ATOM      1  C   UNL     1      18.083  63.579  33.239  0.00  0.00    +0.060 C 
ATOM      2  C   UNL     1      17.591  62.588  32.177  0.00  0.00    +0.123 C 
ATOM      3  O   UNL     1      18.740  61.789  31.804  0.00  0.00    -0.482 OA
ATOM      4  C   UNL     1      18.453  60.585  31.212  0.00  0.00    +0.130 A 
ATOM      5  C   UNL     1      19.440  60.029  30.401  0.00  0.00    +0.058 A 
ATOM      6  C   UNL     1      19.186  58.841  29.714  0.00  0.00    +0.037 A 
ATOM      7  C   UNL     1      17.951  58.206  29.853  0.00  0.00    +0.034 A 
ATOM      8  C   UNL     1      16.980  58.734  30.722  0.00  0.00    +0.024 A 
ATOM      9  C   UNL     1      17.662  56.984  29.081  0.00  0.00    +0.195 C 
ATOM     10  O   UNL     1      16.611  56.378  29.253  0.00  0.00    -0.287 OA
ATOM     11  C   UNL     1      18.638  56.528  28.061  0.00  0.00    +0.034 A 
ATOM     12  C   UNL     1      18.288  55.452  27.235  0.00  0.00    +0.012 A 
ATOM     13  C   UNL     1      19.165  55.017  26.245  0.00  0.00    +0.001 A 
ATOM     14  C   UNL     1      20.385  55.670  26.059  0.00  0.00    +0.009 A 
ATOM     15  C   UNL     1      20.754  56.756  26.873  0.00  0.00    +0.001 A 
ATOM     34  C   UNL     1      19.875  57.168  27.904  0.00  0.00    +0.041 A 
ATOM     35  C   UNL     1      20.232  58.253  28.854  0.00  0.00    +0.195 C 
ATOM     36  O   UNL     1      21.385  58.651  28.964  0.00  0.00    -0.287 OA
ATOM     37  C   UNL     1      17.236  59.922  31.413  0.00  0.00    +0.017 A 
ATOM     38  C   UNL     1      16.277  60.480  32.357  0.00  0.00    +0.011 C 
ATOM     39  C   UNL     1      16.456  61.752  32.731  0.00  0.00    +0.020 C 
ATOM     40  C   UNL     1      17.119  63.373  30.943  0.00  0.00    +0.060 C 
ENDROOT
BRANCH  15  16
ATOM     16  C   UNL     1      22.029  57.446  26.562  0.00  0.00    +0.075 C 
ATOM     17  C   UNL     1      22.134  58.316  25.363  0.00  0.00    +0.202 C 
ATOM     18  O   UNL     1      21.177  58.494  24.612  0.00  0.00    -0.286 OA
ATOM     19  C   UNL     1      23.401  59.037  25.103  0.00  0.00    +0.078 A 
ATOM     20  C   UNL     1      23.463  59.988  24.071  0.00  0.00    +0.129 A 
ATOM     21  C   UNL     1      24.640  60.684  23.805  0.00  0.00    +0.050 A 
ATOM     22  C   UNL     1      25.779  60.426  24.560  0.00  0.00    +0.050 A 
ATOM     23  C   UNL     1      25.725  59.492  25.597  0.00  0.00    +0.129 A 
ATOM     28  C   UNL     1      24.533  58.802  25.889  0.00  0.00    +0.081 A 
ATOM     29  C   UNL     1      24.429  57.868  27.033  0.00  0.00    +0.232 C 
ATOM     30  O   UNL     1      25.361  57.556  27.771  0.00  0.00    -0.283 OA
ATOM     31  C   UNL     1      23.098  57.284  27.356  0.00  0.00    +0.176 C 
BRANCH  23  24
ATOM     24  O   UNL     1      26.859  59.280  26.332  0.00  0.00    -0.506 OA
ATOM     25  H   UNL     1      27.100  58.340  26.323  0.00  0.00    +0.292 HD
ENDBRANCH  23  24
BRANCH  20  26
ATOM     26  O   UNL     1      22.393  60.315  23.282  0.00  0.00    -0.506 OA
ATOM     27  H   UNL     1      22.133  59.517  22.765  0.00  0.00    +0.292 HD
ENDBRANCH  20  26
BRANCH  31  32
ATOM     32  O   UNL     1      23.039  56.540  28.531  0.00  0.00    -0.503 OA
ATOM     33  H   UNL     1      23.949  56.179  28.635  0.00  0.00    +0.292 HD
ENDBRANCH  31  32
ENDBRANCH  15  16
TORSDOF 4
ENDMDL
MODEL 4
REMARK VINA RESULT:    -8.887      4.164      6.863
REMARK INTER + INTRA:         -10.841
REMARK INTER:                 -10.232
REMARK INTRA:                  -0.609
REMARK UNBOUND:                -0.654
REMARK  Name = C:\Users\HP\Downloads\Anthraquinone_pdb\AD53.pdb
REMARK  6 active torsions:
REMARK  status: ('A' for Active; 'I' for Inactive)
REMARK    1  A    between atoms: C_1  and  C_2
REMARK    2  A    between atoms: C_2  and  C_3
REMARK    3  A    between atoms: C_13  and  C_14
REMARK    4  A    between atoms: C_15  and  O_16
REMARK    5  A    between atoms: C_23  and  O_24
REMARK    6  A    between atoms: C_27  and  O_28
REMARK                            x       y       z     vdW  Elec       q    Type
REMARK                         _______ _______ _______ _____ _____    ______ ____
ROOT
ATOM      1  C   UNL     1      16.388  60.711  38.667  0.00  0.00    +0.060 C 
ATOM      2  C   UNL     1      17.199  61.421  37.576  0.00  0.00    +0.123 C 
ATOM      3  O   UNL     1      17.028  60.639  36.369  0.00  0.00    -0.482 OA
ATOM      4  C   UNL     1      17.292  61.301  35.197  0.00  0.00    +0.130 A 
ATOM      5  C   UNL     1      17.637  60.520  34.095  0.00  0.00    +0.058 A 
ATOM      6  C   UNL     1      17.986  61.134  32.891  0.00  0.00    +0.037 A 
ATOM      7  C   UNL     1      17.974  62.526  32.790  0.00  0.00    +0.034 A 
ATOM      8  C   UNL     1      17.564  63.310  33.882  0.00  0.00    +0.024 A 
ATOM      9  C   UNL     1      18.400  63.175  31.537  0.00  0.00    +0.195 C 
ATOM     10  O   UNL     1      18.321  64.392  31.413  0.00  0.00    -0.287 OA
ATOM     11  C   UNL     1      18.969  62.341  30.449  0.00  0.00    +0.034 A 
ATOM     12  C   UNL     1      19.503  62.982  29.324  0.00  0.00    +0.012 A 
ATOM     13  C   UNL     1      20.075  62.234  28.299  0.00  0.00    +0.001 A 
ATOM     14  C   UNL     1      20.140  60.843  28.404  0.00  0.00    +0.009 A 
ATOM     15  C   UNL     1      19.615  60.179  29.528  0.00  0.00    +0.001 A 
ATOM     34  C   UNL     1      18.999  60.943  30.548  0.00  0.00    +0.041 A 
ATOM     35  C   UNL     1      18.351  60.307  31.725  0.00  0.00    +0.195 C 
ATOM     36  O   UNL     1      18.084  59.111  31.736  0.00  0.00    -0.287 OA
ATOM     37  C   UNL     1      17.211  62.694  35.087  0.00  0.00    +0.017 A 
ATOM     38  C   UNL     1      16.737  63.465  36.229  0.00  0.00    +0.011 C 
ATOM     39  C   UNL     1      16.721  62.849  37.417  0.00  0.00    +0.020 C 
ATOM     40  C   UNL     1      18.686  61.399  37.967  0.00  0.00    +0.060 C 
ENDROOT
BRANCH  15  16
ATOM     16  C   UNL     1      19.792  58.709  29.602  0.00  0.00    +0.075 C 
ATOM     17  C   UNL     1      18.800  57.803  28.968  0.00  0.00    +0.202 C 
ATOM     18  O   UNL     1      17.824  58.243  28.363  0.00  0.00    -0.286 OA
ATOM     19  C   UNL     1      19.027  56.341  29.009  0.00  0.00    +0.078 A 
ATOM     20  C   UNL     1      18.190  55.485  28.275  0.00  0.00    +0.129 A 
ATOM     21  C   UNL     1      18.381  54.104  28.293  0.00  0.00    +0.050 A 
ATOM     22  C   UNL     1      19.406  53.560  29.058  0.00  0.00    +0.050 A 
ATOM     23  C   UNL     1      20.253  54.403  29.781  0.00  0.00    +0.129 A 
ATOM     28  C   UNL     1      20.082  55.801  29.751  0.00  0.00    +0.081 A 
ATOM     29  C   UNL     1      21.015  56.719  30.443  0.00  0.00    +0.232 C 
ATOM     30  O   UNL     1      21.954  56.363  31.150  0.00  0.00    -0.283 OA
ATOM     31  C   UNL     1      20.845  58.185  30.248  0.00  0.00    +0.176 C 
BRANCH  23  24
ATOM     24  O   UNL     1      21.263  53.833  30.507  0.00  0.00    -0.506 OA
ATOM     25  H   UNL     1      21.445  52.935  30.189  0.00  0.00    +0.292 HD
ENDBRANCH  23  24
BRANCH  20  26
ATOM     26  O   UNL     1      17.162  55.928  27.486  0.00  0.00    -0.506 OA
ATOM     27  H   UNL     1      17.540  56.491  26.771  0.00  0.00    +0.292 HD
ENDBRANCH  20  26
BRANCH  31  32
ATOM     32  O   UNL     1      21.843  58.983  30.799  0.00  0.00    -0.503 OA
ATOM     33  H   UNL     1      22.385  58.359  31.333  0.00  0.00    +0.292 HD
ENDBRANCH  31  32
ENDBRANCH  15  16
TORSDOF 4
ENDMDL
MODEL 5
REMARK VINA RESULT:    -8.542      3.517      6.505
REMARK INTER + INTRA:         -10.444
REMARK INTER:                 -10.032
REMARK INTRA:                  -0.412
REMARK UNBOUND:                -0.654
REMARK  Name = C:\Users\HP\Downloads\Anthraquinone_pdb\AD53.pdb
REMARK  6 active torsions:
REMARK  status: ('A' for Active; 'I' for Inactive)
REMARK    1  A    between atoms: C_1  and  C_2
REMARK    2  A    between atoms: C_2  and  C_3
REMARK    3  A    between atoms: C_13  and  C_14
REMARK    4  A    between atoms: C_15  and  O_16
REMARK    5  A    between atoms: C_23  and  O_24
REMARK    6  A    between atoms: C_27  and  O_28
REMARK                            x       y       z     vdW  Elec       q    Type
REMARK                         _______ _______ _______ _____ _____    ______ ____
ROOT
ATOM      1  C   UNL     1      24.247  62.039  33.152  0.00  0.00    +0.060 C 
ATOM      2  C   UNL     1      24.905  61.322  31.966  0.00  0.00    +0.123 C 
ATOM      3  O   UNL     1      23.824  60.824  31.142  0.00  0.00    -0.482 OA
ATOM      4  C   UNL     1      24.158  60.541  29.842  0.00  0.00    +0.130 A 
ATOM      5  C   UNL     1      23.354  59.622  29.169  0.00  0.00    +0.058 A 
ATOM      6  C   UNL     1      23.679  59.239  27.867  0.00  0.00    +0.037 A 
ATOM      7  C   UNL     1      24.798  59.787  27.238  0.00  0.00    +0.034 A 
ATOM      8  C   UNL     1      25.569  60.762  27.893  0.00  0.00    +0.024 A 
ATOM      9  C   UNL     1      25.174  59.337  25.885  0.00  0.00    +0.195 C 
ATOM     10  O   UNL     1      26.109  59.867  25.295  0.00  0.00    -0.287 OA
ATOM     11  C   UNL     1      24.438  58.204  25.271  0.00  0.00    +0.034 A 
ATOM     12  C   UNL     1      24.897  57.692  24.051  0.00  0.00    +0.012 A 
ATOM     13  C   UNL     1      24.252  56.609  23.461  0.00  0.00    +0.001 A 
ATOM     14  C   UNL     1      23.161  56.016  24.099  0.00  0.00    +0.009 A 
ATOM     15  C   UNL     1      22.686  56.511  25.327  0.00  0.00    +0.001 A 
ATOM     34  C   UNL     1      23.322  57.637  25.902  0.00  0.00    +0.041 A 
ATOM     35  C   UNL     1      22.828  58.265  27.156  0.00  0.00    +0.195 C 
ATOM     36  O   UNL     1      21.713  58.015  27.597  0.00  0.00    -0.287 OA
ATOM     37  C   UNL     1      25.241  61.149  29.196  0.00  0.00    +0.017 A 
ATOM     38  C   UNL     1      25.986  62.188  29.896  0.00  0.00    +0.011 C 
ATOM     39  C   UNL     1      25.814  62.276  31.220  0.00  0.00    +0.020 C 
ATOM     40  C   UNL     1      25.711  60.124  32.494  0.00  0.00    +0.060 C 
ENDROOT
BRANCH  15  16
ATOM     16  C   UNL     1      21.574  55.779  25.980  0.00  0.00    +0.075 C 
ATOM     17  C   UNL     1      20.185  55.929  25.477  0.00  0.00    +0.202 C 
ATOM     18  O   UNL     1      19.924  56.646  24.513  0.00  0.00    -0.286 OA
ATOM     19  C   UNL     1      19.100  55.146  26.111  0.00  0.00    +0.078 A 
ATOM     20  C   UNL     1      17.814  55.150  25.544  0.00  0.00    +0.129 A 
ATOM     21  C   UNL     1      16.774  54.422  26.117  0.00  0.00    +0.050 A 
ATOM     22  C   UNL     1      17.002  53.688  27.276  0.00  0.00    +0.050 A 
ATOM     23  C   UNL     1      18.280  53.666  27.841  0.00  0.00    +0.129 A 
ATOM     28  C   UNL     1      19.343  54.381  27.255  0.00  0.00    +0.081 A 
ATOM     29  C   UNL     1      20.722  54.308  27.788  0.00  0.00    +0.232 C 
ATOM     30  O   UNL     1      21.051  53.698  28.803  0.00  0.00    -0.283 OA
ATOM     31  C   UNL     1      21.814  54.981  27.032  0.00  0.00    +0.176 C 
BRANCH  23  24
ATOM     24  O   UNL     1      18.472  52.917  28.969  0.00  0.00    -0.506 OA
ATOM     25  H   UNL     1      17.889  52.141  28.966  0.00  0.00    +0.292 HD
ENDBRANCH  23  24
BRANCH  20  26
ATOM     26  O   UNL     1      17.496  55.834  24.401  0.00  0.00    -0.506 OA
ATOM     27  H   UNL     1      17.752  56.778  24.523  0.00  0.00    +0.292 HD
ENDBRANCH  20  26
BRANCH  31  32
ATOM     32  O   UNL     1      23.102  54.746  27.501  0.00  0.00    -0.503 OA
ATOM     33  H   UNL     1      23.632  55.493  27.141  0.00  0.00    +0.292 HD
ENDBRANCH  31  32
ENDBRANCH  15  16
TORSDOF 4
ENDMDL
MODEL 6
REMARK VINA RESULT:    -8.537     15.015     18.258
REMARK INTER + INTRA:         -10.440
REMARK INTER:                  -9.789
REMARK INTRA:                  -0.651
REMARK UNBOUND:                -0.654
REMARK  Name = C:\Users\HP\Downloads\Anthraquinone_pdb\AD53.pdb
REMARK  6 active torsions:
REMARK  status: ('A' for Active; 'I' for Inactive)
REMARK    1  A    between atoms: C_1  and  C_2
REMARK    2  A    between atoms: C_2  and  C_3
REMARK    3  A    between atoms: C_13  and  C_14
REMARK    4  A    between atoms: C_15  and  O_16
REMARK    5  A    between atoms: C_23  and  O_24
REMARK    6  A    between atoms: C_27  and  O_28
REMARK                            x       y       z     vdW  Elec       q    Type
REMARK                         _______ _______ _______ _____ _____    ______ ____
ROOT
ATOM      1  C   UNL     1       4.126  73.768  36.848  0.00  0.00    +0.060 C 
ATOM      2  C   UNL     1       5.022  73.526  35.626  0.00  0.00    +0.123 C 
ATOM      3  O   UNL     1       5.424  72.136  35.686  0.00  0.00    -0.482 OA
ATOM      4  C   UNL     1       5.853  71.596  34.500  0.00  0.00    +0.130 A 
ATOM      5  C   UNL     1       6.697  70.491  34.579  0.00  0.00    +0.058 A 
ATOM      6  C   UNL     1       7.226  69.935  33.412  0.00  0.00    +0.037 A 
ATOM      7  C   UNL     1       6.895  70.480  32.170  0.00  0.00    +0.034 A 
ATOM      8  C   UNL     1       5.993  71.555  32.088  0.00  0.00    +0.024 A 
ATOM      9  C   UNL     1       7.500  69.932  30.943  0.00  0.00    +0.195 C 
ATOM     10  O   UNL     1       7.159  70.353  29.844  0.00  0.00    -0.287 OA
ATOM     11  C   UNL     1       8.560  68.900  31.060  0.00  0.00    +0.034 A 
ATOM     12  C   UNL     1       9.228  68.493  29.899  0.00  0.00    +0.012 A 
ATOM     13  C   UNL     1      10.250  67.551  29.974  0.00  0.00    +0.001 A 
ATOM     14  C   UNL     1      10.628  67.030  31.213  0.00  0.00    +0.009 A 
ATOM     15  C   UNL     1       9.975  67.429  32.394  0.00  0.00    +0.001 A 
ATOM     34  C   UNL     1       8.909  68.357  32.305  0.00  0.00    +0.041 A 
ATOM     35  C   UNL     1       8.120  68.765  33.497  0.00  0.00    +0.195 C 
ATOM     36  O   UNL     1       8.171  68.129  34.543  0.00  0.00    -0.287 OA
ATOM     37  C   UNL     1       5.460  72.107  33.257  0.00  0.00    +0.017 A 
ATOM     38  C   UNL     1       4.487  73.191  33.217  0.00  0.00    +0.011 C 
ATOM     39  C   UNL     1       4.271  73.861  34.355  0.00  0.00    +0.020 C 
ATOM     40  C   UNL     1       6.278  74.405  35.748  0.00  0.00    +0.060 C 
ENDROOT
BRANCH  15  16
ATOM     16  C   UNL     1      10.485  66.892  33.677  0.00  0.00    +0.075 C 
ATOM     17  C   UNL     1      11.625  67.553  34.364  0.00  0.00    +0.202 C 
ATOM     18  O   UNL     1      12.160  68.556  33.898  0.00  0.00    -0.286 OA
ATOM     19  C   UNL     1      12.081  67.029  35.671  0.00  0.00    +0.078 A 
ATOM     20  C   UNL     1      13.043  67.739  36.409  0.00  0.00    +0.129 A 
ATOM     21  C   UNL     1      13.490  67.272  37.643  0.00  0.00    +0.050 A 
ATOM     22  C   UNL     1      12.991  66.078  38.151  0.00  0.00    +0.050 A 
ATOM     23  C   UNL     1      12.024  65.370  37.432  0.00  0.00    +0.129 A 
ATOM     28  C   UNL     1      11.549  65.847  36.195  0.00  0.00    +0.081 A 
ATOM     29  C   UNL     1      10.467  65.159  35.454  0.00  0.00    +0.232 C 
ATOM     30  O   UNL     1       9.948  64.099  35.796  0.00  0.00    -0.283 OA
ATOM     31  C   UNL     1       9.927  65.801  34.224  0.00  0.00    +0.176 C 
BRANCH  23  24
ATOM     24  O   UNL     1      11.541  64.211  37.973  0.00  0.00    -0.506 OA
ATOM     25  H   UNL     1      11.797  63.449  37.429  0.00  0.00    +0.292 HD
ENDBRANCH  23  24
BRANCH  20  26
ATOM     26  O   UNL     1      13.586  68.926  35.995  0.00  0.00    -0.506 OA
ATOM     27  H   UNL     1      13.064  69.255  35.226  0.00  0.00    +0.292 HD
ENDBRANCH  20  26
BRANCH  31  32
ATOM     32  O   UNL     1       8.814  65.182  33.664  0.00  0.00    -0.503 OA
ATOM     33  H   UNL     1       9.183  64.630  32.938  0.00  0.00    +0.292 HD
ENDBRANCH  31  32
ENDBRANCH  15  16
TORSDOF 4
ENDMDL
MODEL 7
REMARK VINA RESULT:    -8.289      7.815     14.687
REMARK INTER + INTRA:         -10.155
REMARK INTER:                  -9.483
REMARK INTRA:                  -0.672
REMARK UNBOUND:                -0.654
REMARK  Name = C:\Users\HP\Downloads\Anthraquinone_pdb\AD53.pdb
REMARK  6 active torsions:
REMARK  status: ('A' for Active; 'I' for Inactive)
REMARK    1  A    between atoms: C_1  and  C_2
REMARK    2  A    between atoms: C_2  and  C_3
REMARK    3  A    between atoms: C_13  and  C_14
REMARK    4  A    between atoms: C_15  and  O_16
REMARK    5  A    between atoms: C_23  and  O_24
REMARK    6  A    between atoms: C_27  and  O_28
REMARK                            x       y       z     vdW  Elec       q    Type
REMARK                         _______ _______ _______ _____ _____    ______ ____
ROOT
ATOM      1  C   UNL     1      18.651  61.388  30.047  0.00  0.00    +0.060 C 
ATOM      2  C   UNL     1      18.685  62.405  31.195  0.00  0.00    +0.123 C 
ATOM      3  O   UNL     1      17.373  62.370  31.808  0.00  0.00    -0.482 OA
ATOM      4  C   UNL     1      17.309  62.858  33.088  0.00  0.00    +0.130 A 
ATOM      5  C   UNL     1      16.069  63.316  33.527  0.00  0.00    +0.058 A 
ATOM      6  C   UNL     1      15.948  63.888  34.795  0.00  0.00    +0.037 A 
ATOM      7  C   UNL     1      17.068  63.988  35.623  0.00  0.00    +0.034 A 
ATOM      8  C   UNL     1      18.304  63.467  35.204  0.00  0.00    +0.024 A 
ATOM      9  C   UNL     1      16.953  64.646  36.937  0.00  0.00    +0.195 C 
ATOM     10  O   UNL     1      17.911  64.670  37.701  0.00  0.00    -0.287 OA
ATOM     11  C   UNL     1      15.681  65.319  37.298  0.00  0.00    +0.034 A 
ATOM     12  C   UNL     1      15.632  66.063  38.483  0.00  0.00    +0.012 A 
ATOM     13  C   UNL     1      14.465  66.735  38.839  0.00  0.00    +0.001 A 
ATOM     14  C   UNL     1      13.351  66.688  37.999  0.00  0.00    +0.009 A 
ATOM     15  C   UNL     1      13.380  65.951  36.801  0.00  0.00    +0.001 A 
ATOM     34  C   UNL     1      14.556  65.237  36.466  0.00  0.00    +0.041 A 
ATOM     35  C   UNL     1      14.634  64.373  35.259  0.00  0.00    +0.195 C 
ATOM     36  O   UNL     1      13.625  64.026  34.657  0.00  0.00    -0.287 OA
ATOM     37  C   UNL     1      18.423  62.890  33.936  0.00  0.00    +0.017 A 
ATOM     38  C   UNL     1      19.673  62.298  33.478  0.00  0.00    +0.011 C 
ATOM     39  C   UNL     1      19.792  62.056  32.168  0.00  0.00    +0.020 C 
ATOM     40  C   UNL     1      18.916  63.808  30.610  0.00  0.00    +0.060 C 
ENDROOT
BRANCH  15  16
ATOM     16  C   UNL     1      12.185  66.013  35.926  0.00  0.00    +0.075 C 
ATOM     17  C   UNL     1      12.040  67.112  34.937  0.00  0.00    +0.202 C 
ATOM     18  O   UNL     1      12.901  67.981  34.811  0.00  0.00    -0.286 OA
ATOM     19  C   UNL     1      10.864  67.123  34.038  0.00  0.00    +0.078 A 
ATOM     20  C   UNL     1      10.796  68.057  32.990  0.00  0.00    +0.129 A 
ATOM     21  C   UNL     1       9.703  68.090  32.127  0.00  0.00    +0.050 A 
ATOM     22  C   UNL     1       8.654  67.196  32.308  0.00  0.00    +0.050 A 
ATOM     23  C   UNL     1       8.717  66.254  33.338  0.00  0.00    +0.129 A 
ATOM     28  C   UNL     1       9.829  66.198  34.201  0.00  0.00    +0.081 A 
ATOM     29  C   UNL     1       9.956  65.158  35.247  0.00  0.00    +0.232 C 
ATOM     30  O   UNL     1       9.100  64.317  35.507  0.00  0.00    -0.283 OA
ATOM     31  C   UNL     1      11.223  65.084  36.026  0.00  0.00    +0.176 C 
BRANCH  23  24
ATOM     24  O   UNL     1       7.676  65.377  33.473  0.00  0.00    -0.506 OA
ATOM     25  H   UNL     1       7.967  64.571  33.929  0.00  0.00    +0.292 HD
ENDBRANCH  23  24
BRANCH  20  26
ATOM     26  O   UNL     1      11.783  68.969  32.728  0.00  0.00    -0.506 OA
ATOM     27  H   UNL     1      12.604  68.479  32.490  0.00  0.00    +0.292 HD
ENDBRANCH  20  26
BRANCH  31  32
ATOM     32  O   UNL     1      11.337  63.993  36.883  0.00  0.00    -0.503 OA
ATOM     33  H   UNL     1      11.197  63.212  36.301  0.00  0.00    +0.292 HD
ENDBRANCH  31  32
ENDBRANCH  15  16
TORSDOF 4
ENDMDL
MODEL 8
REMARK VINA RESULT:    -8.271     21.424     25.133
REMARK INTER + INTRA:         -10.135
REMARK INTER:                  -9.524
REMARK INTRA:                  -0.610
REMARK UNBOUND:                -0.654
REMARK  Name = C:\Users\HP\Downloads\Anthraquinone_pdb\AD53.pdb
REMARK  6 active torsions:
REMARK  status: ('A' for Active; 'I' for Inactive)
REMARK    1  A    between atoms: C_1  and  C_2
REMARK    2  A    between atoms: C_2  and  C_3
REMARK    3  A    between atoms: C_13  and  C_14
REMARK    4  A    between atoms: C_15  and  O_16
REMARK    5  A    between atoms: C_23  and  O_24
REMARK    6  A    between atoms: C_27  and  O_28
REMARK                            x       y       z     vdW  Elec       q    Type
REMARK                         _______ _______ _______ _____ _____    ______ ____
ROOT
ATOM      1  C   UNL     1      24.636  45.221   9.188  0.00  0.00    +0.060 C 
ATOM      2  C   UNL     1      24.628  46.514   8.363  0.00  0.00    +0.123 C 
ATOM      3  O   UNL     1      23.288  46.647   7.829  0.00  0.00    -0.482 OA
ATOM      4  C   UNL     1      22.935  47.913   7.436  0.00  0.00    +0.130 A 
ATOM      5  C   UNL     1      21.920  48.019   6.487  0.00  0.00    +0.058 A 
ATOM      6  C   UNL     1      21.559  49.274   5.993  0.00  0.00    +0.037 A 
ATOM      7  C   UNL     1      22.206  50.419   6.461  0.00  0.00    +0.034 A 
ATOM      8  C   UNL     1      23.184  50.316   7.465  0.00  0.00    +0.024 A 
ATOM      9  C   UNL     1      21.866  51.737   5.896  0.00  0.00    +0.195 C 
ATOM     10  O   UNL     1      22.373  52.755   6.354  0.00  0.00    -0.287 OA
ATOM     11  C   UNL     1      20.942  51.809   4.738  0.00  0.00    +0.034 A 
ATOM     12  C   UNL     1      20.740  53.049   4.119  0.00  0.00    +0.012 A 
ATOM     13  C   UNL     1      19.906  53.149   3.009  0.00  0.00    +0.001 A 
ATOM     14  C   UNL     1      19.288  52.007   2.497  0.00  0.00    +0.009 A 
ATOM     15  C   UNL     1      19.481  50.750   3.099  0.00  0.00    +0.001 A 
ATOM     34  C   UNL     1      20.299  50.662   4.251  0.00  0.00    +0.041 A 
ATOM     35  C   UNL     1      20.484  49.385   4.988  0.00  0.00    +0.195 C 
ATOM     36  O   UNL     1      19.741  48.428   4.803  0.00  0.00    -0.287 OA
ATOM     37  C   UNL     1      23.542  49.059   7.963  0.00  0.00    +0.017 A 
ATOM     38  C   UNL     1      24.518  48.910   9.034  0.00  0.00    +0.011 C 
ATOM     39  C   UNL     1      25.028  47.689   9.232  0.00  0.00    +0.020 C 
ATOM     40  C   UNL     1      25.611  46.362   7.191  0.00  0.00    +0.060 C 
ENDROOT
BRANCH  15  16
ATOM     16  C   UNL     1      18.855  49.573   2.449  0.00  0.00    +0.075 C 
ATOM     17  C   UNL     1      17.464  49.182   2.795  0.00  0.00    +0.202 C 
ATOM     18  O   UNL     1      16.800  49.820   3.609  0.00  0.00    -0.286 OA
ATOM     19  C   UNL     1      16.843  48.036   2.093  0.00  0.00    +0.078 A 
ATOM     20  C   UNL     1      15.479  47.757   2.286  0.00  0.00    +0.129 A 
ATOM     21  C   UNL     1      14.866  46.686   1.638  0.00  0.00    +0.050 A 
ATOM     22  C   UNL     1      15.613  45.870   0.797  0.00  0.00    +0.050 A 
ATOM     23  C   UNL     1      16.967  46.146   0.586  0.00  0.00    +0.129 A 
ATOM     28  C   UNL     1      17.589  47.240   1.219  0.00  0.00    +0.081 A 
ATOM     29  C   UNL     1      18.999  47.601   0.949  0.00  0.00    +0.232 C 
ATOM     30  O   UNL     1      19.762  46.961   0.230  0.00  0.00    -0.283 OA
ATOM     31  C   UNL     1      19.541  48.851   1.552  0.00  0.00    +0.176 C 
BRANCH  23  24
ATOM     24  O   UNL     1      17.665  45.334  -0.264  0.00  0.00    -0.506 OA
ATOM     25  H   UNL     1      18.532  45.720  -0.467  0.00  0.00    +0.292 HD
ENDBRANCH  23  24
BRANCH  20  26
ATOM     26  O   UNL     1      14.662  48.508   3.088  0.00  0.00    -0.506 OA
ATOM     27  H   UNL     1      14.248  47.912   3.755  0.00  0.00    +0.292 HD
ENDBRANCH  20  26
BRANCH  31  32
ATOM     32  O   UNL     1      20.819  49.211   1.136  0.00  0.00    -0.503 OA
ATOM     33  H   UNL     1      20.960  50.102   1.530  0.00  0.00    +0.292 HD
ENDBRANCH  31  32
ENDBRANCH  15  16
TORSDOF 4
ENDMDL
MODEL 9
REMARK VINA RESULT:    -8.248      3.568      4.702
REMARK INTER + INTRA:         -10.108
REMARK INTER:                  -9.587
REMARK INTRA:                  -0.521
REMARK UNBOUND:                -0.654
REMARK  Name = C:\Users\HP\Downloads\Anthraquinone_pdb\AD53.pdb
REMARK  6 active torsions:
REMARK  status: ('A' for Active; 'I' for Inactive)
REMARK    1  A    between atoms: C_1  and  C_2
REMARK    2  A    between atoms: C_2  and  C_3
REMARK    3  A    between atoms: C_13  and  C_14
REMARK    4  A    between atoms: C_15  and  O_16
REMARK    5  A    between atoms: C_23  and  O_24
REMARK    6  A    between atoms: C_27  and  O_28
REMARK                            x       y       z     vdW  Elec       q    Type
REMARK                         _______ _______ _______ _____ _____    ______ ____
ROOT
ATOM      1  C   UNL     1      17.861  64.013  34.085  0.00  0.00    +0.060 C 
ATOM      2  C   UNL     1      17.562  63.145  32.856  0.00  0.00    +0.123 C 
ATOM      3  O   UNL     1      18.578  62.113  32.830  0.00  0.00    -0.482 OA
ATOM      4  C   UNL     1      18.264  60.998  32.097  0.00  0.00    +0.130 A 
ATOM      5  C   UNL     1      19.329  60.235  31.621  0.00  0.00    +0.058 A 
ATOM      6  C   UNL     1      19.081  59.126  30.810  0.00  0.00    +0.037 A 
ATOM      7  C   UNL     1      17.768  58.776  30.490  0.00  0.00    +0.034 A 
ATOM      8  C   UNL     1      16.693  59.508  31.024  0.00  0.00    +0.024 A 
ATOM      9  C   UNL     1      17.510  57.641  29.586  0.00  0.00    +0.195 C 
ATOM     10  O   UNL     1      16.361  57.280  29.361  0.00  0.00    -0.287 OA
ATOM     11  C   UNL     1      18.656  56.977  28.917  0.00  0.00    +0.034 A 
ATOM     12  C   UNL     1      18.390  55.998  27.951  0.00  0.00    +0.012 A 
ATOM     13  C   UNL     1      19.438  55.376  27.279  0.00  0.00    +0.001 A 
ATOM     14  C   UNL     1      20.757  55.747  27.550  0.00  0.00    +0.009 A 
ATOM     15  C   UNL     1      21.047  56.732  28.512  0.00  0.00    +0.001 A 
ATOM     34  C   UNL     1      19.977  57.331  29.220  0.00  0.00    +0.041 A 
ATOM     35  C   UNL     1      20.210  58.320  30.306  0.00  0.00    +0.195 C 
ATOM     36  O   UNL     1      21.315  58.458  30.816  0.00  0.00    -0.287 OA
ATOM     37  C   UNL     1      16.942  60.616  31.840  0.00  0.00    +0.017 A 
ATOM     38  C   UNL     1      15.858  61.375  32.450  0.00  0.00    +0.011 C 
ATOM     39  C   UNL     1      16.160  62.580  32.946  0.00  0.00    +0.020 C 
ATOM     40  C   UNL     1      17.706  64.007  31.591  0.00  0.00    +0.060 C 
ENDROOT
BRANCH  15  16
ATOM     16  C   UNL     1      22.465  57.127  28.686  0.00  0.00    +0.075 C 
ATOM     17  C   UNL     1      23.299  56.477  29.729  0.00  0.00    +0.202 C 
ATOM     18  O   UNL     1      22.844  55.598  30.460  0.00  0.00    -0.286 OA
ATOM     19  C   UNL     1      24.726  56.849  29.847  0.00  0.00    +0.078 A 
ATOM     20  C   UNL     1      25.565  56.129  30.714  0.00  0.00    +0.129 A 
ATOM     21  C   UNL     1      26.914  56.455  30.845  0.00  0.00    +0.050 A 
ATOM     22  C   UNL     1      27.440  57.518  30.119  0.00  0.00    +0.050 A 
ATOM     23  C   UNL     1      26.618  58.233  29.244  0.00  0.00    +0.129 A 
ATOM     28  C   UNL     1      25.259  57.895  29.088  0.00  0.00    +0.081 A 
ATOM     29  C   UNL     1      24.389  58.585  28.109  0.00  0.00    +0.232 C 
ATOM     30  O   UNL     1      24.733  59.536  27.413  0.00  0.00    -0.283 OA
ATOM     31  C   UNL     1      23.004  58.077  27.907  0.00  0.00    +0.176 C 
BRANCH  23  24
ATOM     24  O   UNL     1      27.175  59.259  28.532  0.00  0.00    -0.506 OA
ATOM     25  H   UNL     1      27.637  58.918  27.750  0.00  0.00    +0.292 HD
ENDBRANCH  23  24
BRANCH  20  26
ATOM     26  O   UNL     1      25.141  55.063  31.461  0.00  0.00    -0.506 OA
ATOM     27  H   UNL     1      25.021  54.291  30.861  0.00  0.00    +0.292 HD
ENDBRANCH  20  26
BRANCH  31  32
ATOM     32  O   UNL     1      22.294  58.669  26.868  0.00  0.00    -0.503 OA
ATOM     33  H   UNL     1      21.382  58.310  26.960  0.00  0.00    +0.292 HD
ENDBRANCH  31  32
ENDBRANCH  15  16
TORSDOF 4
ENDMDL
