MODEL 1
REMARK VINA RESULT:    -7.097      0.000      0.000
REMARK INTER + INTRA:          -7.512
REMARK INTER:                  -7.512
REMARK INTRA:                   0.000
REMARK UNBOUND:                 0.000
REMARK  Name = C:\Users\HP\Downloads\Anthraquinone_pdb\AD55.pdb
REMARK  3 active torsions:
REMARK  status: ('A' for Active; 'I' for Inactive)
REMARK    1  A    between atoms: C_1  and  C_2
REMARK    2  A    between atoms: C_9  and  O_10
REMARK    3  A    between atoms: C_11  and  O_12
REMARK                            x       y       z     vdW  Elec       q    Type
REMARK                         _______ _______ _______ _____ _____    ______ ____
ROOT
ATOM      1  C   UNL     1      19.688  60.741  31.323  0.00  0.00    +0.044 C 
ATOM      2  C   UNL     1      18.984  59.607  30.636  0.00  0.00    -0.050 A 
ATOM      3  C   UNL     1      19.630  58.923  29.600  0.00  0.00    +0.015 A 
ATOM      4  C   UNL     1      18.994  57.861  28.944  0.00  0.00    +0.033 A 
ATOM      5  C   UNL     1      19.699  57.158  27.857  0.00  0.00    +0.195 C 
ATOM      6  O   UNL     1      20.829  57.498  27.529  0.00  0.00    -0.287 OA
ATOM      7  C   UNL     1      19.028  56.039  27.168  0.00  0.00    +0.037 A 
ATOM      8  C   UNL     1      19.703  55.373  26.132  0.00  0.00    +0.016 A 
ATOM      9  C   UNL     1      19.090  54.313  25.466  0.00  0.00    +0.050 A 
ATOM     10  C   UNL     1      17.809  53.930  25.838  0.00  0.00    +0.159 A 
ATOM     13  C   UNL     1      17.130  54.585  26.865  0.00  0.00    +0.170 A 
ATOM     16  C   UNL     1      17.740  55.650  27.539  0.00  0.00    +0.078 A 
ATOM     17  C   UNL     1      17.040  56.357  28.629  0.00  0.00    +0.198 C 
ATOM     18  O   UNL     1      15.907  56.003  28.944  0.00  0.00    -0.286 OA
ATOM     19  C   UNL     1      17.710  57.477  29.320  0.00  0.00    +0.033 A 
ATOM     20  C   UNL     1      17.056  58.155  30.355  0.00  0.00    +0.013 A 
ATOM     21  C   UNL     1      17.692  59.216  31.009  0.00  0.00    +0.004 A 
ENDROOT
BRANCH  10  11
ATOM     11  O   UNL     1      17.215  52.892  25.180  0.00  0.00    -0.503 OA
ATOM     12  H   UNL     1      17.955  52.388  24.785  0.00  0.00    +0.292 HD
ENDBRANCH  10  11
BRANCH  13  14
ATOM     14  O   UNL     1      15.868  54.125  27.153  0.00  0.00    -0.503 OA
ATOM     15  H   UNL     1      15.520  54.660  27.905  0.00  0.00    +0.292 HD
ENDBRANCH  13  14
TORSDOF 2
ENDMDL
MODEL 2
REMARK VINA RESULT:    -6.580     21.892     23.323
REMARK INTER + INTRA:          -6.965
REMARK INTER:                  -6.965
REMARK INTRA:                   0.000
REMARK UNBOUND:                 0.000
REMARK  Name = C:\Users\HP\Downloads\Anthraquinone_pdb\AD55.pdb
REMARK  3 active torsions:
REMARK  status: ('A' for Active; 'I' for Inactive)
REMARK    1  A    between atoms: C_1  and  C_2
REMARK    2  A    between atoms: C_9  and  O_10
REMARK    3  A    between atoms: C_11  and  O_12
REMARK                            x       y       z     vdW  Elec       q    Type
REMARK                         _______ _______ _______ _____ _____    ______ ____
ROOT
ATOM      1  C   UNL     1      18.655  49.978   3.994  0.00  0.00    +0.044 C 
ATOM      2  C   UNL     1      19.705  49.778   5.048  0.00  0.00    -0.050 A 
ATOM      3  C   UNL     1      20.198  48.490   5.291  0.00  0.00    +0.015 A 
ATOM      4  C   UNL     1      21.179  48.278   6.269  0.00  0.00    +0.033 A 
ATOM      5  C   UNL     1      21.680  46.912   6.504  0.00  0.00    +0.195 C 
ATOM      6  O   UNL     1      21.244  45.971   5.851  0.00  0.00    -0.287 OA
ATOM      7  C   UNL     1      22.713  46.690   7.533  0.00  0.00    +0.037 A 
ATOM      8  C   UNL     1      23.187  45.387   7.753  0.00  0.00    +0.016 A 
ATOM      9  C   UNL     1      24.163  45.152   8.721  0.00  0.00    +0.050 A 
ATOM     10  C   UNL     1      24.655  46.219   9.460  0.00  0.00    +0.159 A 
ATOM     13  C   UNL     1      24.191  47.517   9.249  0.00  0.00    +0.170 A 
ATOM     16  C   UNL     1      23.211  47.760   8.279  0.00  0.00    +0.078 A 
ATOM     17  C   UNL     1      22.705  49.126   8.039  0.00  0.00    +0.198 C 
ATOM     18  O   UNL     1      23.153  50.057   8.702  0.00  0.00    -0.286 OA
ATOM     19  C   UNL     1      21.672  49.350   7.008  0.00  0.00    +0.033 A 
ATOM     20  C   UNL     1      21.185  50.641   6.772  0.00  0.00    +0.013 A 
ATOM     21  C   UNL     1      20.205  50.851   5.795  0.00  0.00    +0.004 A 
ENDROOT
BRANCH  10  11
ATOM     11  O   UNL     1      25.609  45.980  10.406  0.00  0.00    -0.503 OA
ATOM     12  H   UNL     1      26.264  45.403   9.963  0.00  0.00    +0.292 HD
ENDBRANCH  10  11
BRANCH  13  14
ATOM     14  O   UNL     1      24.744  48.498  10.034  0.00  0.00    -0.503 OA
ATOM     15  H   UNL     1      24.324  49.355   9.782  0.00  0.00    +0.292 HD
ENDBRANCH  13  14
TORSDOF 2
ENDMDL
MODEL 3
REMARK VINA RESULT:    -6.431     23.093     25.514
REMARK INTER + INTRA:          -6.807
REMARK INTER:                  -6.807
REMARK INTRA:                   0.000
REMARK UNBOUND:                 0.000
REMARK  Name = C:\Users\HP\Downloads\Anthraquinone_pdb\AD55.pdb
REMARK  3 active torsions:
REMARK  status: ('A' for Active; 'I' for Inactive)
REMARK    1  A    between atoms: C_1  and  C_2
REMARK    2  A    between atoms: C_9  and  O_10
REMARK    3  A    between atoms: C_11  and  O_12
REMARK                            x       y       z     vdW  Elec       q    Type
REMARK                         _______ _______ _______ _____ _____    ______ ____
ROOT
ATOM      1  C   UNL     1      21.541  58.567   1.487  0.00  0.00    +0.044 C 
ATOM      2  C   UNL     1      21.926  59.883   2.099  0.00  0.00    -0.050 A 
ATOM      3  C   UNL     1      22.576  59.901   3.339  0.00  0.00    +0.015 A 
ATOM      4  C   UNL     1      22.946  61.116   3.930  0.00  0.00    +0.033 A 
ATOM      5  C   UNL     1      23.628  61.104   5.237  0.00  0.00    +0.195 C 
ATOM      6  O   UNL     1      23.871  60.044   5.800  0.00  0.00    -0.287 OA
ATOM      7  C   UNL     1      24.017  62.385   5.857  0.00  0.00    +0.037 A 
ATOM      8  C   UNL     1      24.668  62.369   7.102  0.00  0.00    +0.016 A 
ATOM      9  C   UNL     1      25.045  63.566   7.710  0.00  0.00    +0.050 A 
ATOM     10  C   UNL     1      24.769  64.766   7.070  0.00  0.00    +0.159 A 
ATOM     13  C   UNL     1      24.124  64.792   5.834  0.00  0.00    +0.170 A 
ATOM     16  C   UNL     1      23.742  63.595   5.218  0.00  0.00    +0.078 A 
ATOM     17  C   UNL     1      23.058  63.599   3.910  0.00  0.00    +0.198 C 
ATOM     18  O   UNL     1      22.823  64.671   3.359  0.00  0.00    -0.286 OA
ATOM     19  C   UNL     1      22.669  62.318   3.286  0.00  0.00    +0.033 A 
ATOM     20  C   UNL     1      22.020  62.311   2.046  0.00  0.00    +0.013 A 
ATOM     21  C   UNL     1      21.651  61.096   1.457  0.00  0.00    +0.004 A 
ENDROOT
BRANCH  10  11
ATOM     11  O   UNL     1      25.141  65.933   7.671  0.00  0.00    -0.503 OA
ATOM     12  H   UNL     1      25.438  65.672   8.566  0.00  0.00    +0.292 HD
ENDBRANCH  10  11
BRANCH  13  14
ATOM     14  O   UNL     1      23.900  66.033   5.288  0.00  0.00    -0.503 OA
ATOM     15  H   UNL     1      24.454  66.107   4.476  0.00  0.00    +0.292 HD
ENDBRANCH  13  14
TORSDOF 2
ENDMDL
MODEL 4
REMARK VINA RESULT:    -6.397     22.236     23.419
REMARK INTER + INTRA:          -6.771
REMARK INTER:                  -6.771
REMARK INTRA:                   0.000
REMARK UNBOUND:                 0.000
REMARK  Name = C:\Users\HP\Downloads\Anthraquinone_pdb\AD55.pdb
REMARK  3 active torsions:
REMARK  status: ('A' for Active; 'I' for Inactive)
REMARK    1  A    between atoms: C_1  and  C_2
REMARK    2  A    between atoms: C_9  and  O_10
REMARK    3  A    between atoms: C_11  and  O_12
REMARK                            x       y       z     vdW  Elec       q    Type
REMARK                         _______ _______ _______ _____ _____    ______ ____
ROOT
ATOM      1  C   UNL     1      25.051  45.207   9.473  0.00  0.00    +0.044 C 
ATOM      2  C   UNL     1      24.606  46.526   8.911  0.00  0.00    -0.050 A 
ATOM      3  C   UNL     1      23.486  46.573   8.072  0.00  0.00    +0.015 A 
ATOM      4  C   UNL     1      23.050  47.791   7.536  0.00  0.00    +0.033 A 
ATOM      5  C   UNL     1      21.868  47.811   6.656  0.00  0.00    +0.195 C 
ATOM      6  O   UNL     1      21.271  46.773   6.396  0.00  0.00    -0.287 OA
ATOM      7  C   UNL     1      21.410  49.096   6.093  0.00  0.00    +0.037 A 
ATOM      8  C   UNL     1      20.283  49.109   5.255  0.00  0.00    +0.016 A 
ATOM      9  C   UNL     1      19.832  50.311   4.710  0.00  0.00    +0.050 A 
ATOM     10  C   UNL     1      20.509  51.485   5.005  0.00  0.00    +0.159 A 
ATOM     13  C   UNL     1      21.629  51.482   5.836  0.00  0.00    +0.170 A 
ATOM     16  C   UNL     1      22.088  50.280   6.387  0.00  0.00    +0.078 A 
ATOM     17  C   UNL     1      23.272  50.253   7.269  0.00  0.00    +0.198 C 
ATOM     18  O   UNL     1      23.858  51.302   7.519  0.00  0.00    -0.286 OA
ATOM     19  C   UNL     1      23.731  48.968   7.834  0.00  0.00    +0.033 A 
ATOM     20  C   UNL     1      24.852  48.931   8.672  0.00  0.00    +0.013 A 
ATOM     21  C   UNL     1      25.285  47.713   9.207  0.00  0.00    +0.004 A 
ENDROOT
BRANCH  10  11
ATOM     11  O   UNL     1      20.061  52.656   4.467  0.00  0.00    -0.503 OA
ATOM     12  H   UNL     1      19.085  52.590   4.497  0.00  0.00    +0.292 HD
ENDBRANCH  10  11
BRANCH  13  14
ATOM     14  O   UNL     1      22.224  52.699   6.063  0.00  0.00    -0.503 OA
ATOM     15  H   UNL     1      22.539  52.708   6.998  0.00  0.00    +0.292 HD
ENDBRANCH  13  14
TORSDOF 2
ENDMDL
MODEL 5
REMARK VINA RESULT:    -6.254     22.124     23.694
REMARK INTER + INTRA:          -6.620
REMARK INTER:                  -6.620
REMARK INTRA:                   0.000
REMARK UNBOUND:                 0.000
REMARK  Name = C:\Users\HP\Downloads\Anthraquinone_pdb\AD55.pdb
REMARK  3 active torsions:
REMARK  status: ('A' for Active; 'I' for Inactive)
REMARK    1  A    between atoms: C_1  and  C_2
REMARK    2  A    between atoms: C_9  and  O_10
REMARK    3  A    between atoms: C_11  and  O_12
REMARK                            x       y       z     vdW  Elec       q    Type
REMARK                         _______ _______ _______ _____ _____    ______ ____
ROOT
ATOM      1  C   UNL     1      30.616  46.359  10.280  0.00  0.00    +0.044 C 
ATOM      2  C   UNL     1      29.173  46.600   9.945  0.00  0.00    -0.050 A 
ATOM      3  C   UNL     1      28.461  45.627   9.232  0.00  0.00    +0.015 A 
ATOM      4  C   UNL     1      27.114  45.828   8.907  0.00  0.00    +0.033 A 
ATOM      5  C   UNL     1      26.389  44.788   8.157  0.00  0.00    +0.195 C 
ATOM      6  O   UNL     1      26.958  43.756   7.820  0.00  0.00    -0.287 OA
ATOM      7  C   UNL     1      24.969  45.001   7.816  0.00  0.00    +0.037 A 
ATOM      8  C   UNL     1      24.283  44.006   7.101  0.00  0.00    +0.016 A 
ATOM      9  C   UNL     1      22.941  44.185   6.766  0.00  0.00    +0.050 A 
ATOM     10  C   UNL     1      22.299  45.354   7.148  0.00  0.00    +0.159 A 
ATOM     13  C   UNL     1      22.971  46.348   7.859  0.00  0.00    +0.170 A 
ATOM     16  C   UNL     1      24.318  46.175   8.198  0.00  0.00    +0.078 A 
ATOM     17  C   UNL     1      25.050  47.214   8.950  0.00  0.00    +0.198 C 
ATOM     18  O   UNL     1      24.464  48.241   9.279  0.00  0.00    -0.286 OA
ATOM     19  C   UNL     1      26.470  47.002   9.292  0.00  0.00    +0.033 A 
ATOM     20  C   UNL     1      27.174  47.980  10.005  0.00  0.00    +0.013 A 
ATOM     21  C   UNL     1      28.520  47.777  10.328  0.00  0.00    +0.004 A 
ENDROOT
BRANCH  10  11
ATOM     11  O   UNL     1      20.985  45.522   6.816  0.00  0.00    -0.503 OA
ATOM     12  H   UNL     1      20.512  44.810   7.293  0.00  0.00    +0.292 HD
ENDBRANCH  10  11
BRANCH  13  14
ATOM     14  O   UNL     1      22.241  47.464   8.186  0.00  0.00    -0.503 OA
ATOM     15  H   UNL     1      22.404  47.658   9.140  0.00  0.00    +0.292 HD
ENDBRANCH  13  14
TORSDOF 2
ENDMDL
MODEL 6
REMARK VINA RESULT:    -6.190     15.896     17.898
REMARK INTER + INTRA:          -6.552
REMARK INTER:                  -6.552
REMARK INTRA:                   0.000
REMARK UNBOUND:                 0.000
REMARK  Name = C:\Users\HP\Downloads\Anthraquinone_pdb\AD55.pdb
REMARK  3 active torsions:
REMARK  status: ('A' for Active; 'I' for Inactive)
REMARK    1  A    between atoms: C_1  and  C_2
REMARK    2  A    between atoms: C_9  and  O_10
REMARK    3  A    between atoms: C_11  and  O_12
REMARK                            x       y       z     vdW  Elec       q    Type
REMARK                         _______ _______ _______ _____ _____    ______ ____
ROOT
ATOM      1  C   UNL     1      18.144  38.369  26.599  0.00  0.00    +0.044 C 
ATOM      2  C   UNL     1      17.395  38.607  25.320  0.00  0.00    -0.050 A 
ATOM      3  C   UNL     1      17.527  39.837  24.664  0.00  0.00    +0.015 A 
ATOM      4  C   UNL     1      16.840  40.084  23.469  0.00  0.00    +0.033 A 
ATOM      5  C   UNL     1      16.998  41.388  22.801  0.00  0.00    +0.195 C 
ATOM      6  O   UNL     1      17.723  42.248  23.284  0.00  0.00    -0.287 OA
ATOM      7  C   UNL     1      16.272  41.645  21.542  0.00  0.00    +0.037 A 
ATOM      8  C   UNL     1      16.426  42.889  20.909  0.00  0.00    +0.016 A 
ATOM      9  C   UNL     1      15.751  43.156  19.718  0.00  0.00    +0.050 A 
ATOM     10  C   UNL     1      14.930  42.180  19.173  0.00  0.00    +0.159 A 
ATOM     13  C   UNL     1      14.770  40.942  19.794  0.00  0.00    +0.170 A 
ATOM     16  C   UNL     1      15.445  40.666  20.989  0.00  0.00    +0.078 A 
ATOM     17  C   UNL     1      15.291  39.362  21.663  0.00  0.00    +0.198 C 
ATOM     18  O   UNL     1      14.559  38.512  21.165  0.00  0.00    -0.286 OA
ATOM     19  C   UNL     1      16.016  39.103  22.923  0.00  0.00    +0.033 A 
ATOM     20  C   UNL     1      15.877  37.870  23.571  0.00  0.00    +0.013 A 
ATOM     21  C   UNL     1      16.566  37.626  24.765  0.00  0.00    +0.004 A 
ENDROOT
BRANCH  10  11
ATOM     11  O   UNL     1      14.271  42.450  18.008  0.00  0.00    -0.503 OA
ATOM     12  H   UNL     1      14.959  42.798  17.405  0.00  0.00    +0.292 HD
ENDBRANCH  10  11
BRANCH  13  14
ATOM     14  O   UNL     1      13.934  40.049  19.169  0.00  0.00    -0.503 OA
ATOM     15  H   UNL     1      14.335  39.152  19.257  0.00  0.00    +0.292 HD
ENDBRANCH  13  14
TORSDOF 2
ENDMDL
MODEL 7
REMARK VINA RESULT:    -6.101     15.718     19.104
REMARK INTER + INTRA:          -6.458
REMARK INTER:                  -6.458
REMARK INTRA:                   0.000
REMARK UNBOUND:                 0.000
REMARK  Name = C:\Users\HP\Downloads\Anthraquinone_pdb\AD55.pdb
REMARK  3 active torsions:
REMARK  status: ('A' for Active; 'I' for Inactive)
REMARK    1  A    between atoms: C_1  and  C_2
REMARK    2  A    between atoms: C_9  and  O_10
REMARK    3  A    between atoms: C_11  and  O_12
REMARK                            x       y       z     vdW  Elec       q    Type
REMARK                         _______ _______ _______ _____ _____    ______ ____
ROOT
ATOM      1  C   UNL     1      11.886  36.378  19.843  0.00  0.00    +0.044 C 
ATOM      2  C   UNL     1      12.847  37.487  20.159  0.00  0.00    -0.050 A 
ATOM      3  C   UNL     1      13.494  37.503  21.400  0.00  0.00    +0.015 A 
ATOM      4  C   UNL     1      14.396  38.527  21.718  0.00  0.00    +0.033 A 
ATOM      5  C   UNL     1      15.063  38.519  23.033  0.00  0.00    +0.195 C 
ATOM      6  O   UNL     1      14.833  37.626  23.839  0.00  0.00    -0.287 OA
ATOM      7  C   UNL     1      16.013  39.598  23.365  0.00  0.00    +0.037 A 
ATOM      8  C   UNL     1      16.646  39.585  24.619  0.00  0.00    +0.016 A 
ATOM      9  C   UNL     1      17.547  40.594  24.957  0.00  0.00    +0.050 A 
ATOM     10  C   UNL     1      17.806  41.605  24.043  0.00  0.00    +0.159 A 
ATOM     13  C   UNL     1      17.182  41.626  22.795  0.00  0.00    +0.170 A 
ATOM     16  C   UNL     1      16.277  40.617  22.449  0.00  0.00    +0.078 A 
ATOM     17  C   UNL     1      15.605  40.619  21.134  0.00  0.00    +0.198 C 
ATOM     18  O   UNL     1      15.847  41.522  20.338  0.00  0.00    -0.286 OA
ATOM     19  C   UNL     1      14.655  39.540  20.799  0.00  0.00    +0.033 A 
ATOM     20  C   UNL     1      14.012  39.532  19.555  0.00  0.00    +0.013 A 
ATOM     21  C   UNL     1      13.112  38.508  19.239  0.00  0.00    +0.004 A 
ENDROOT
BRANCH  10  11
ATOM     11  O   UNL     1      18.688  42.589  24.382  0.00  0.00    -0.503 OA
ATOM     12  H   UNL     1      18.901  43.038  23.538  0.00  0.00    +0.292 HD
ENDBRANCH  10  11
BRANCH  13  14
ATOM     14  O   UNL     1      17.510  42.671  21.967  0.00  0.00    -0.503 OA
ATOM     15  H   UNL     1      18.478  42.837  22.063  0.00  0.00    +0.292 HD
ENDBRANCH  13  14
TORSDOF 2
ENDMDL
MODEL 8
REMARK VINA RESULT:    -6.085     23.864     25.561
REMARK INTER + INTRA:          -6.441
REMARK INTER:                  -6.441
REMARK INTRA:                   0.000
REMARK UNBOUND:                 0.000
REMARK  Name = C:\Users\HP\Downloads\Anthraquinone_pdb\AD55.pdb
REMARK  3 active torsions:
REMARK  status: ('A' for Active; 'I' for Inactive)
REMARK    1  A    between atoms: C_1  and  C_2
REMARK    2  A    between atoms: C_9  and  O_10
REMARK    3  A    between atoms: C_11  and  O_12
REMARK                            x       y       z     vdW  Elec       q    Type
REMARK                         _______ _______ _______ _____ _____    ______ ____
ROOT
ATOM      1  C   UNL     1      11.549  82.020  18.891  0.00  0.00    +0.044 C 
ATOM      2  C   UNL     1      11.662  81.469  20.283  0.00  0.00    -0.050 A 
ATOM      3  C   UNL     1      10.498  81.207  21.016  0.00  0.00    +0.015 A 
ATOM      4  C   UNL     1      10.578  80.693  22.316  0.00  0.00    +0.033 A 
ATOM      5  C   UNL     1       9.336  80.426  23.064  0.00  0.00    +0.195 C 
ATOM      6  O   UNL     1       8.245  80.651  22.555  0.00  0.00    -0.287 OA
ATOM      7  C   UNL     1       9.422  79.883  24.434  0.00  0.00    +0.037 A 
ATOM      8  C   UNL     1       8.236  79.631  25.142  0.00  0.00    +0.016 A 
ATOM      9  C   UNL     1       8.291  79.119  26.438  0.00  0.00    +0.050 A 
ATOM     10  C   UNL     1       9.528  78.865  27.013  0.00  0.00    +0.159 A 
ATOM     13  C   UNL     1      10.711  79.112  26.318  0.00  0.00    +0.170 A 
ATOM     16  C   UNL     1      10.664  79.626  25.017  0.00  0.00    +0.078 A 
ATOM     17  C   UNL     1      11.904  79.896  24.263  0.00  0.00    +0.198 C 
ATOM     18  O   UNL     1      12.988  79.665  24.789  0.00  0.00    -0.286 OA
ATOM     19  C   UNL     1      11.820  80.438  22.892  0.00  0.00    +0.033 A 
ATOM     20  C   UNL     1      12.989  80.697  22.167  0.00  0.00    +0.013 A 
ATOM     21  C   UNL     1      12.908  81.211  20.867  0.00  0.00    +0.004 A 
ENDROOT
BRANCH  10  11
ATOM     11  O   UNL     1       9.574  78.365  28.283  0.00  0.00    -0.503 OA
ATOM     12  H   UNL     1      10.399  78.725  28.666  0.00  0.00    +0.292 HD
ENDBRANCH  10  11
BRANCH  13  14
ATOM     14  O   UNL     1      11.880  78.826  26.981  0.00  0.00    -0.503 OA
ATOM     15  H   UNL     1      12.607  79.319  26.531  0.00  0.00    +0.292 HD
ENDBRANCH  13  14
TORSDOF 2
ENDMDL
MODEL 9
REMARK VINA RESULT:    -5.962     15.969     19.743
REMARK INTER + INTRA:          -6.311
REMARK INTER:                  -6.311
REMARK INTRA:                   0.000
REMARK UNBOUND:                 0.000
REMARK  Name = C:\Users\HP\Downloads\Anthraquinone_pdb\AD55.pdb
REMARK  3 active torsions:
REMARK  status: ('A' for Active; 'I' for Inactive)
REMARK    1  A    between atoms: C_1  and  C_2
REMARK    2  A    between atoms: C_9  and  O_10
REMARK    3  A    between atoms: C_11  and  O_12
REMARK                            x       y       z     vdW  Elec       q    Type
REMARK                         _______ _______ _______ _____ _____    ______ ____
ROOT
ATOM      1  C   UNL     1      14.020  34.118  23.046  0.00  0.00    +0.044 C 
ATOM      2  C   UNL     1      14.029  35.445  22.344  0.00  0.00    -0.050 A 
ATOM      3  C   UNL     1      14.891  36.453  22.790  0.00  0.00    +0.015 A 
ATOM      4  C   UNL     1      14.918  37.699  22.151  0.00  0.00    +0.033 A 
ATOM      5  C   UNL     1      15.837  38.742  22.642  0.00  0.00    +0.195 C 
ATOM      6  O   UNL     1      16.570  38.523  23.598  0.00  0.00    -0.287 OA
ATOM      7  C   UNL     1      15.864  40.054  21.967  0.00  0.00    +0.037 A 
ATOM      8  C   UNL     1      16.741  41.045  22.438  0.00  0.00    +0.016 A 
ATOM      9  C   UNL     1      16.784  42.293  21.818  0.00  0.00    +0.050 A 
ATOM     10  C   UNL     1      15.952  42.540  20.735  0.00  0.00    +0.159 A 
ATOM     13  C   UNL     1      15.078  41.563  20.260  0.00  0.00    +0.170 A 
ATOM     16  C   UNL     1      15.029  40.308  20.877  0.00  0.00    +0.078 A 
ATOM     17  C   UNL     1      14.111  39.259  20.391  0.00  0.00    +0.198 C 
ATOM     18  O   UNL     1      13.383  39.496  19.432  0.00  0.00    -0.286 OA
ATOM     19  C   UNL     1      14.083  37.945  21.064  0.00  0.00    +0.033 A 
ATOM     20  C   UNL     1      13.217  36.943  20.611  0.00  0.00    +0.013 A 
ATOM     21  C   UNL     1      13.192  35.698  21.251  0.00  0.00    +0.004 A 
ENDROOT
BRANCH  10  11
ATOM     11  O   UNL     1      16.000  43.764  20.134  0.00  0.00    -0.503 OA
ATOM     12  H   UNL     1      16.037  43.572  19.175  0.00  0.00    +0.292 HD
ENDBRANCH  10  11
BRANCH  13  14
ATOM     14  O   UNL     1      14.299  41.912  19.183  0.00  0.00    -0.503 OA
ATOM     15  H   UNL     1      13.917  41.083  18.810  0.00  0.00    +0.292 HD
ENDBRANCH  13  14
TORSDOF 2
ENDMDL
