MODEL 1
REMARK VINA RESULT:    -8.283      0.000      0.000
REMARK INTER + INTRA:         -14.014
REMARK INTER:                 -12.157
REMARK INTRA:                  -1.857
REMARK UNBOUND:                -1.857
REMARK  Name = C:\Users\HP\Downloads\Anthraquinone_pdb\AD57.pdb
REMARK  11 active torsions:
REMARK  status: ('A' for Active; 'I' for Inactive)
REMARK    1  A    between atoms: O_1  and  C_17
REMARK    2  A    between atoms: O_4  and  C_21
REMARK    3  A    between atoms: O_4  and  C_24
REMARK    4  A    between atoms: O_5  and  C_19
REMARK    5  A    between atoms: O_6  and  C_29
REMARK    6  A    between atoms: O_6  and  C_33
REMARK    7  A    between atoms: O_7  and  C_31
REMARK    8  A    between atoms: O_7  and  C_34
REMARK    9  A    between atoms: C_16  and  C_21
REMARK   10  A    between atoms: C_24  and  C_26
REMARK   11  A    between atoms: C_25  and  C_28
REMARK                            x       y       z     vdW  Elec       q    Type
REMARK                         _______ _______ _______ _____ _____    ______ ____
ROOT
ATOM      3  C   UNL     1      20.854  56.996  23.923  0.00  0.00    +0.129 A 
ATOM      4  C   UNL     1      22.082  57.269  23.319  0.00  0.00    +0.053 A 
ATOM      5  C   UNL     1      23.251  56.699  23.821  0.00  0.00    -0.006 A 
ATOM     22  C   UNL     1      23.196  55.854  24.930  0.00  0.00    +0.019 A 
ATOM     23  C   UNL     1      21.967  55.576  25.539  0.00  0.00    +0.037 A 
ATOM     24  C   UNL     1      21.920  54.681  26.713  0.00  0.00    +0.195 C 
ATOM     25  C   UNL     1      20.615  54.398  27.346  0.00  0.00    +0.037 A 
ATOM     26  C   UNL     1      20.557  53.551  28.459  0.00  0.00    +0.012 A 
ATOM     27  C   UNL     1      19.329  53.279  29.065  0.00  0.00    +0.004 A 
ATOM     28  C   UNL     1      18.161  53.848  28.562  0.00  0.00    +0.046 A 
ATOM     29  C   UNL     1      18.214  54.692  27.453  0.00  0.00    +0.128 A 
ATOM     32  C   UNL     1      19.444  54.969  26.843  0.00  0.00    +0.075 A 
ATOM     33  C   UNL     1      19.491  55.864  25.669  0.00  0.00    +0.202 C 
ATOM     34  O   UNL     1      18.465  56.363  25.226  0.00  0.00    -0.286 OA
ATOM     35  O   UNL     1      22.946  54.181  27.155  0.00  0.00    -0.287 OA
ATOM     36  C   UNL     1      20.796  56.147  25.036  0.00  0.00    +0.075 A 
ENDROOT
BRANCH   3   1
ATOM      1  O   UNL     1      19.752  57.587  23.381  0.00  0.00    -0.506 OA
ATOM      2  H   UNL     1      19.993  58.131  22.617  0.00  0.00    +0.292 HD
ENDBRANCH   3   1
BRANCH  29  30
ATOM     30  O   UNL     1      17.033  55.214  27.014  0.00  0.00    -0.506 OA
ATOM     31  H   UNL     1      17.163  55.721  26.198  0.00  0.00    +0.292 HD
ENDBRANCH  29  30
BRANCH   5   6
ATOM      6  C   UNL     1      24.560  56.993  23.171  0.00  0.00    +0.268 C 
BRANCH   6   7
ATOM      7  O   UNL     1      24.571  58.341  22.717  0.00  0.00    -0.457 OA
BRANCH   7   8
ATOM      8  C   UNL     1      25.415  59.184  23.380  0.00  0.00    +0.332 C 
ATOM     21  O   UNL     1      26.529  59.529  23.019  0.00  0.00    -0.246 OA
BRANCH   8   9
ATOM      9  C   UNL     1      24.744  59.616  24.627  0.00  0.00    +0.092 C 
ATOM     10  C   UNL     1      23.549  60.219  24.558  0.00  0.00    +0.015 C 
BRANCH  10  11
ATOM     11  C   UNL     1      22.787  60.701  25.724  0.00  0.00    -0.021 A 
ATOM     12  C   UNL     1      22.641  62.070  25.945  0.00  0.00    +0.012 A 
ATOM     13  C   UNL     1      21.919  62.525  27.048  0.00  0.00    +0.050 A 
ATOM     14  C   UNL     1      21.342  61.611  27.931  0.00  0.00    +0.162 A 
ATOM     15  C   UNL     1      21.488  60.242  27.710  0.00  0.00    +0.162 A 
ATOM     20  C   UNL     1      22.210  59.786  26.606  0.00  0.00    +0.057 A 
BRANCH  15  16
ATOM     16  O   UNL     1      20.930  59.339  28.564  0.00  0.00    -0.491 OA
ATOM     17  C   UNL     1      21.246  57.964  28.351  0.00  0.00    +0.277 C 
ENDBRANCH  15  16
BRANCH  14  18
ATOM     18  O   UNL     1      20.640  62.068  29.004  0.00  0.00    -0.491 OA
ATOM     19  C   UNL     1      19.442  62.793  28.733  0.00  0.00    +0.277 C 
ENDBRANCH  14  18
ENDBRANCH  10  11
ENDBRANCH   8   9
ENDBRANCH   7   8
ENDBRANCH   6   7
ENDBRANCH   5   6
TORSDOF 9
ENDMDL
MODEL 2
REMARK VINA RESULT:    -7.587      5.837     11.169
REMARK INTER + INTRA:         -12.993
REMARK INTER:                 -12.305
REMARK INTRA:                  -0.688
REMARK UNBOUND:                -1.857
REMARK  Name = C:\Users\HP\Downloads\Anthraquinone_pdb\AD57.pdb
REMARK  11 active torsions:
REMARK  status: ('A' for Active; 'I' for Inactive)
REMARK    1  A    between atoms: O_1  and  C_17
REMARK    2  A    between atoms: O_4  and  C_21
REMARK    3  A    between atoms: O_4  and  C_24
REMARK    4  A    between atoms: O_5  and  C_19
REMARK    5  A    between atoms: O_6  and  C_29
REMARK    6  A    between atoms: O_6  and  C_33
REMARK    7  A    between atoms: O_7  and  C_31
REMARK    8  A    between atoms: O_7  and  C_34
REMARK    9  A    between atoms: C_16  and  C_21
REMARK   10  A    between atoms: C_24  and  C_26
REMARK   11  A    between atoms: C_25  and  C_28
REMARK                            x       y       z     vdW  Elec       q    Type
REMARK                         _______ _______ _______ _____ _____    ______ ____
ROOT
ATOM      3  C   UNL     1      15.952  62.026  32.861  0.00  0.00    +0.129 A 
ATOM      4  C   UNL     1      17.109  61.670  32.167  0.00  0.00    +0.053 A 
ATOM      5  C   UNL     1      18.253  62.461  32.262  0.00  0.00    -0.006 A 
ATOM     22  C   UNL     1      18.243  63.613  33.049  0.00  0.00    +0.019 A 
ATOM     23  C   UNL     1      17.084  63.974  33.746  0.00  0.00    +0.037 A 
ATOM     24  C   UNL     1      17.083  65.197  34.576  0.00  0.00    +0.195 C 
ATOM     25  C   UNL     1      15.853  65.567  35.305  0.00  0.00    +0.037 A 
ATOM     26  C   UNL     1      15.839  66.723  36.095  0.00  0.00    +0.012 A 
ATOM     27  C   UNL     1      14.681  67.081  36.787  0.00  0.00    +0.004 A 
ATOM     28  C   UNL     1      13.539  66.289  36.693  0.00  0.00    +0.046 A 
ATOM     29  C   UNL     1      13.548  65.137  35.907  0.00  0.00    +0.128 A 
ATOM     32  C   UNL     1      14.707  64.774  35.211  0.00  0.00    +0.075 A 
ATOM     33  C   UNL     1      14.708  63.552  34.381  0.00  0.00    +0.202 C 
ATOM     34  O   UNL     1      13.705  62.855  34.300  0.00  0.00    -0.286 OA
ATOM     35  O   UNL     1      18.087  65.893  34.659  0.00  0.00    -0.287 OA
ATOM     36  C   UNL     1      15.939  63.182  33.652  0.00  0.00    +0.075 A 
ENDROOT
BRANCH   3   1
ATOM      1  O   UNL     1      14.871  61.208  32.723  0.00  0.00    -0.506 OA
ATOM      2  H   UNL     1      14.121  61.537  33.240  0.00  0.00    +0.292 HD
ENDBRANCH   3   1
BRANCH  29  30
ATOM     30  O   UNL     1      12.396  64.408  35.861  0.00  0.00    -0.506 OA
ATOM     31  H   UNL     1      11.641  64.938  36.161  0.00  0.00    +0.292 HD
ENDBRANCH  29  30
BRANCH   5   6
ATOM      6  C   UNL     1      19.488  62.074  31.521  0.00  0.00    +0.268 C 
BRANCH   6   7
ATOM      7  O   UNL     1      19.130  61.345  30.353  0.00  0.00    -0.457 OA
BRANCH   7   8
ATOM      8  C   UNL     1      20.151  60.700  29.720  0.00  0.00    +0.332 C 
ATOM     21  O   UNL     1      21.319  61.050  29.680  0.00  0.00    -0.246 OA
BRANCH   8   9
ATOM      9  C   UNL     1      19.596  59.485  29.080  0.00  0.00    +0.092 C 
ATOM     10  C   UNL     1      18.963  58.574  29.832  0.00  0.00    +0.015 C 
BRANCH  10  11
ATOM     11  C   UNL     1      18.377  57.324  29.315  0.00  0.00    -0.021 A 
ATOM     12  C   UNL     1      16.995  57.206  29.177  0.00  0.00    +0.012 A 
ATOM     13  C   UNL     1      16.441  56.023  28.687  0.00  0.00    +0.050 A 
ATOM     14  C   UNL     1      17.271  54.958  28.334  0.00  0.00    +0.162 A 
ATOM     15  C   UNL     1      18.653  55.076  28.472  0.00  0.00    +0.162 A 
ATOM     20  C   UNL     1      19.207  56.259  28.962  0.00  0.00    +0.057 A 
BRANCH  15  16
ATOM     16  O   UNL     1      19.474  54.043  28.131  0.00  0.00    -0.491 OA
ATOM     17  C   UNL     1      19.959  53.223  29.193  0.00  0.00    +0.277 C 
ENDBRANCH  15  16
BRANCH  14  18
ATOM     18  O   UNL     1      16.718  53.808  27.857  0.00  0.00    -0.491 OA
ATOM     19  C   UNL     1      16.669  53.653  26.440  0.00  0.00    +0.277 C 
ENDBRANCH  14  18
ENDBRANCH  10  11
ENDBRANCH   8   9
ENDBRANCH   7   8
ENDBRANCH   6   7
ENDBRANCH   5   6
TORSDOF 9
ENDMDL
MODEL 3
REMARK VINA RESULT:    -7.529      1.320      2.222
REMARK INTER + INTRA:         -12.908
REMARK INTER:                 -11.337
REMARK INTRA:                  -1.570
REMARK UNBOUND:                -1.857
REMARK  Name = C:\Users\HP\Downloads\Anthraquinone_pdb\AD57.pdb
REMARK  11 active torsions:
REMARK  status: ('A' for Active; 'I' for Inactive)
REMARK    1  A    between atoms: O_1  and  C_17
REMARK    2  A    between atoms: O_4  and  C_21
REMARK    3  A    between atoms: O_4  and  C_24
REMARK    4  A    between atoms: O_5  and  C_19
REMARK    5  A    between atoms: O_6  and  C_29
REMARK    6  A    between atoms: O_6  and  C_33
REMARK    7  A    between atoms: O_7  and  C_31
REMARK    8  A    between atoms: O_7  and  C_34
REMARK    9  A    between atoms: C_16  and  C_21
REMARK   10  A    between atoms: C_24  and  C_26
REMARK   11  A    between atoms: C_25  and  C_28
REMARK                            x       y       z     vdW  Elec       q    Type
REMARK                         _______ _______ _______ _____ _____    ______ ____
ROOT
ATOM      3  C   UNL     1      20.508  57.137  24.059  0.00  0.00    +0.129 A 
ATOM      4  C   UNL     1      21.694  57.692  23.577  0.00  0.00    +0.053 A 
ATOM      5  C   UNL     1      22.904  57.413  24.209  0.00  0.00    -0.006 A 
ATOM     22  C   UNL     1      22.933  56.579  25.327  0.00  0.00    +0.019 A 
ATOM     23  C   UNL     1      21.746  56.020  25.814  0.00  0.00    +0.037 A 
ATOM     24  C   UNL     1      21.787  55.139  27.000  0.00  0.00    +0.195 C 
ATOM     25  C   UNL     1      20.526  54.556  27.503  0.00  0.00    +0.037 A 
ATOM     26  C   UNL     1      20.552  53.720  28.625  0.00  0.00    +0.012 A 
ATOM     27  C   UNL     1      19.365  53.166  29.109  0.00  0.00    +0.004 A 
ATOM     28  C   UNL     1      18.156  53.444  28.476  0.00  0.00    +0.046 A 
ATOM     29  C   UNL     1      18.125  54.277  27.358  0.00  0.00    +0.128 A 
ATOM     32  C   UNL     1      19.313  54.835  26.869  0.00  0.00    +0.075 A 
ATOM     33  C   UNL     1      19.272  55.716  25.685  0.00  0.00    +0.202 C 
ATOM     34  O   UNL     1      18.210  55.959  25.127  0.00  0.00    -0.286 OA
ATOM     35  O   UNL     1      22.850  54.894  27.556  0.00  0.00    -0.287 OA
ATOM     36  C   UNL     1      20.533  56.299  25.181  0.00  0.00    +0.075 A 
ENDROOT
BRANCH   3   1
ATOM      1  O   UNL     1      19.361  57.452  23.393  0.00  0.00    -0.506 OA
ATOM      2  H   UNL     1      19.475  58.260  22.872  0.00  0.00    +0.292 HD
ENDBRANCH   3   1
BRANCH  29  30
ATOM     30  O   UNL     1      16.908  54.506  26.787  0.00  0.00    -0.506 OA
ATOM     31  H   UNL     1      16.597  53.721  26.313  0.00  0.00    +0.292 HD
ENDBRANCH  29  30
BRANCH   5   6
ATOM      6  C   UNL     1      24.169  58.008  23.689  0.00  0.00    +0.268 C 
BRANCH   6   7
ATOM      7  O   UNL     1      24.783  58.782  24.712  0.00  0.00    -0.457 OA
BRANCH   7   8
ATOM      8  C   UNL     1      24.370  60.079  24.805  0.00  0.00    +0.332 C 
ATOM     21  O   UNL     1      24.946  61.059  24.361  0.00  0.00    -0.246 OA
BRANCH   8   9
ATOM      9  C   UNL     1      23.087  60.097  25.544  0.00  0.00    +0.092 C 
ATOM     10  C   UNL     1      23.083  59.868  26.864  0.00  0.00    +0.015 C 
BRANCH  10  11
ATOM     11  C   UNL     1      21.874  59.851  27.706  0.00  0.00    -0.021 A 
ATOM     12  C   UNL     1      21.462  58.665  28.312  0.00  0.00    +0.012 A 
ATOM     13  C   UNL     1      20.318  58.649  29.110  0.00  0.00    +0.050 A 
ATOM     14  C   UNL     1      19.585  59.821  29.302  0.00  0.00    +0.162 A 
ATOM     15  C   UNL     1      19.997  61.008  28.697  0.00  0.00    +0.162 A 
ATOM     20  C   UNL     1      21.141  61.024  27.899  0.00  0.00    +0.057 A 
BRANCH  15  16
ATOM     16  O   UNL     1      19.290  62.158  28.877  0.00  0.00    -0.491 OA
ATOM     17  C   UNL     1      19.545  62.894  30.072  0.00  0.00    +0.277 C 
ENDBRANCH  15  16
BRANCH  14  18
ATOM     18  O   UNL     1      18.470  59.793  30.083  0.00  0.00    -0.491 OA
ATOM     19  C   UNL     1      17.775  58.550  30.176  0.00  0.00    +0.277 C 
ENDBRANCH  14  18
ENDBRANCH  10  11
ENDBRANCH   8   9
ENDBRANCH   7   8
ENDBRANCH   6   7
ENDBRANCH   5   6
TORSDOF 9
ENDMDL
MODEL 4
REMARK VINA RESULT:    -7.377      2.168      6.412
REMARK INTER + INTRA:         -12.684
REMARK INTER:                 -10.919
REMARK INTRA:                  -1.765
REMARK UNBOUND:                -1.857
REMARK  Name = C:\Users\HP\Downloads\Anthraquinone_pdb\AD57.pdb
REMARK  11 active torsions:
REMARK  status: ('A' for Active; 'I' for Inactive)
REMARK    1  A    between atoms: O_1  and  C_17
REMARK    2  A    between atoms: O_4  and  C_21
REMARK    3  A    between atoms: O_4  and  C_24
REMARK    4  A    between atoms: O_5  and  C_19
REMARK    5  A    between atoms: O_6  and  C_29
REMARK    6  A    between atoms: O_6  and  C_33
REMARK    7  A    between atoms: O_7  and  C_31
REMARK    8  A    between atoms: O_7  and  C_34
REMARK    9  A    between atoms: C_16  and  C_21
REMARK   10  A    between atoms: C_24  and  C_26
REMARK   11  A    between atoms: C_25  and  C_28
REMARK                            x       y       z     vdW  Elec       q    Type
REMARK                         _______ _______ _______ _____ _____    ______ ____
ROOT
ATOM      3  C   UNL     1      21.699  62.062  27.040  0.00  0.00    +0.129 A 
ATOM      4  C   UNL     1      22.766  61.360  26.478  0.00  0.00    +0.053 A 
ATOM      5  C   UNL     1      23.181  60.153  27.036  0.00  0.00    -0.006 A 
ATOM     22  C   UNL     1      22.531  59.642  28.160  0.00  0.00    +0.019 A 
ATOM     23  C   UNL     1      21.460  60.342  28.728  0.00  0.00    +0.037 A 
ATOM     24  C   UNL     1      20.780  59.794  29.919  0.00  0.00    +0.195 C 
ATOM     25  C   UNL     1      19.652  60.544  30.509  0.00  0.00    +0.037 A 
ATOM     26  C   UNL     1      18.998  60.035  31.637  0.00  0.00    +0.012 A 
ATOM     27  C   UNL     1      17.932  60.737  32.201  0.00  0.00    +0.004 A 
ATOM     28  C   UNL     1      17.517  61.944  31.643  0.00  0.00    +0.046 A 
ATOM     29  C   UNL     1      18.165  62.455  30.518  0.00  0.00    +0.128 A 
ATOM     32  C   UNL     1      19.236  61.754  29.949  0.00  0.00    +0.075 A 
ATOM     33  C   UNL     1      19.916  62.302  28.758  0.00  0.00    +0.202 C 
ATOM     34  O   UNL     1      19.550  63.362  28.266  0.00  0.00    -0.286 OA
ATOM     35  O   UNL     1      21.144  58.733  30.410  0.00  0.00    -0.287 OA
ATOM     36  C   UNL     1      21.044  61.552  28.169  0.00  0.00    +0.075 A 
ENDROOT
BRANCH   3   1
ATOM      1  O   UNL     1      21.346  63.236  26.444  0.00  0.00    -0.506 OA
ATOM      2  H   UNL     1      20.706  63.719  26.987  0.00  0.00    +0.292 HD
ENDBRANCH   3   1
BRANCH  29  30
ATOM     30  O   UNL     1      17.707  63.640  30.023  0.00  0.00    -0.506 OA
ATOM     31  H   UNL     1      18.443  64.236  29.819  0.00  0.00    +0.292 HD
ENDBRANCH  29  30
BRANCH   5   6
ATOM      6  C   UNL     1      24.320  59.406  26.429  0.00  0.00    +0.268 C 
BRANCH   6   7
ATOM      7  O   UNL     1      23.941  58.924  25.146  0.00  0.00    -0.457 OA
BRANCH   7   8
ATOM      8  C   UNL     1      23.848  57.569  25.023  0.00  0.00    +0.332 C 
ATOM     21  O   UNL     1      24.765  56.795  24.798  0.00  0.00    -0.246 OA
BRANCH   8   9
ATOM      9  C   UNL     1      22.429  57.189  25.212  0.00  0.00    +0.092 C 
ATOM     10  C   UNL     1      22.095  56.358  26.208  0.00  0.00    +0.015 C 
BRANCH  10  11
ATOM     11  C   UNL     1      20.723  55.901  26.492  0.00  0.00    -0.021 A 
ATOM     12  C   UNL     1      20.078  55.038  25.607  0.00  0.00    +0.012 A 
ATOM     13  C   UNL     1      18.779  54.605  25.876  0.00  0.00    +0.050 A 
ATOM     14  C   UNL     1      18.126  55.035  27.032  0.00  0.00    +0.162 A 
ATOM     15  C   UNL     1      18.772  55.897  27.918  0.00  0.00    +0.162 A 
ATOM     20  C   UNL     1      20.070  56.330  27.649  0.00  0.00    +0.057 A 
BRANCH  15  16
ATOM     16  O   UNL     1      18.145  56.324  29.049  0.00  0.00    -0.491 OA
ATOM     17  C   UNL     1      17.679  57.672  29.063  0.00  0.00    +0.277 C 
ENDBRANCH  15  16
BRANCH  14  18
ATOM     18  O   UNL     1      16.859  54.605  27.284  0.00  0.00    -0.491 OA
ATOM     19  C   UNL     1      16.374  53.521  26.494  0.00  0.00    +0.277 C 
ENDBRANCH  14  18
ENDBRANCH  10  11
ENDBRANCH   8   9
ENDBRANCH   7   8
ENDBRANCH   6   7
ENDBRANCH   5   6
TORSDOF 9
ENDMDL
MODEL 5
REMARK VINA RESULT:    -7.117      2.680      6.440
REMARK INTER + INTRA:         -12.302
REMARK INTER:                 -11.101
REMARK INTRA:                  -1.201
REMARK UNBOUND:                -1.857
REMARK  Name = C:\Users\HP\Downloads\Anthraquinone_pdb\AD57.pdb
REMARK  11 active torsions:
REMARK  status: ('A' for Active; 'I' for Inactive)
REMARK    1  A    between atoms: O_1  and  C_17
REMARK    2  A    between atoms: O_4  and  C_21
REMARK    3  A    between atoms: O_4  and  C_24
REMARK    4  A    between atoms: O_5  and  C_19
REMARK    5  A    between atoms: O_6  and  C_29
REMARK    6  A    between atoms: O_6  and  C_33
REMARK    7  A    between atoms: O_7  and  C_31
REMARK    8  A    between atoms: O_7  and  C_34
REMARK    9  A    between atoms: C_16  and  C_21
REMARK   10  A    between atoms: C_24  and  C_26
REMARK   11  A    between atoms: C_25  and  C_28
REMARK                            x       y       z     vdW  Elec       q    Type
REMARK                         _______ _______ _______ _____ _____    ______ ____
ROOT
ATOM      3  C   UNL     1      21.477  57.042  29.342  0.00  0.00    +0.129 A 
ATOM      4  C   UNL     1      21.395  55.919  28.519  0.00  0.00    +0.053 A 
ATOM      5  C   UNL     1      20.151  55.425  28.131  0.00  0.00    -0.006 A 
ATOM     22  C   UNL     1      18.983  56.051  28.567  0.00  0.00    +0.019 A 
ATOM     23  C   UNL     1      19.060  57.178  29.393  0.00  0.00    +0.037 A 
ATOM     24  C   UNL     1      17.817  57.833  29.850  0.00  0.00    +0.195 C 
ATOM     25  C   UNL     1      17.912  59.021  30.723  0.00  0.00    +0.037 A 
ATOM     26  C   UNL     1      16.742  59.651  31.163  0.00  0.00    +0.012 A 
ATOM     27  C   UNL     1      16.823  60.773  31.989  0.00  0.00    +0.004 A 
ATOM     28  C   UNL     1      18.067  61.268  32.375  0.00  0.00    +0.046 A 
ATOM     29  C   UNL     1      19.235  60.644  31.940  0.00  0.00    +0.128 A 
ATOM     32  C   UNL     1      19.159  59.517  31.111  0.00  0.00    +0.075 A 
ATOM     33  C   UNL     1      20.401  58.862  30.654  0.00  0.00    +0.202 C 
ATOM     34  O   UNL     1      21.494  59.297  30.993  0.00  0.00    -0.286 OA
ATOM     35  O   UNL     1      16.724  57.398  29.511  0.00  0.00    -0.287 OA
ATOM     36  C   UNL     1      20.306  57.673  29.782  0.00  0.00    +0.075 A 
ENDROOT
BRANCH   3   1
ATOM      1  O   UNL     1      22.724  57.472  29.683  0.00  0.00    -0.506 OA
ATOM      2  H   UNL     1      22.748  58.437  29.760  0.00  0.00    +0.292 HD
ENDBRANCH   3   1
BRANCH  29  30
ATOM     30  O   UNL     1      20.418  61.181  32.355  0.00  0.00    -0.506 OA
ATOM     31  H   UNL     1      20.976  60.505  32.768  0.00  0.00    +0.292 HD
ENDBRANCH  29  30
BRANCH   5   6
ATOM      6  C   UNL     1      20.070  54.225  27.248  0.00  0.00    +0.268 C 
BRANCH   6   7
ATOM      7  O   UNL     1      20.715  54.503  26.011  0.00  0.00    -0.457 OA
BRANCH   7   8
ATOM      8  C   UNL     1      20.079  55.395  25.198  0.00  0.00    +0.332 C 
ATOM     21  O   UNL     1      18.875  55.489  25.022  0.00  0.00    -0.246 OA
BRANCH   8   9
ATOM      9  C   UNL     1      21.111  56.242  24.554  0.00  0.00    +0.092 C 
ATOM     10  C   UNL     1      21.428  57.424  25.100  0.00  0.00    +0.015 C 
BRANCH  10  11
ATOM     11  C   UNL     1      22.427  58.357  24.550  0.00  0.00    -0.021 A 
ATOM     12  C   UNL     1      23.744  58.318  25.008  0.00  0.00    +0.012 A 
ATOM     13  C   UNL     1      24.690  59.201  24.488  0.00  0.00    +0.050 A 
ATOM     14  C   UNL     1      24.319  60.123  23.507  0.00  0.00    +0.162 A 
ATOM     15  C   UNL     1      23.003  60.161  23.049  0.00  0.00    +0.162 A 
ATOM     20  C   UNL     1      22.056  59.278  23.570  0.00  0.00    +0.057 A 
BRANCH  15  16
ATOM     16  O   UNL     1      22.628  61.057  22.093  0.00  0.00    -0.491 OA
ATOM     17  C   UNL     1      21.513  61.895  22.391  0.00  0.00    +0.277 C 
ENDBRANCH  15  16
BRANCH  14  18
ATOM     18  O   UNL     1      25.252  60.980  23.007  0.00  0.00    -0.491 OA
ATOM     19  C   UNL     1      26.620  60.675  23.272  0.00  0.00    +0.277 C 
ENDBRANCH  14  18
ENDBRANCH  10  11
ENDBRANCH   8   9
ENDBRANCH   7   8
ENDBRANCH   6   7
ENDBRANCH   5   6
TORSDOF 9
ENDMDL
MODEL 6
REMARK VINA RESULT:    -7.112     10.601     16.100
REMARK INTER + INTRA:         -12.295
REMARK INTER:                 -11.667
REMARK INTRA:                  -0.628
REMARK UNBOUND:                -1.857
REMARK  Name = C:\Users\HP\Downloads\Anthraquinone_pdb\AD57.pdb
REMARK  11 active torsions:
REMARK  status: ('A' for Active; 'I' for Inactive)
REMARK    1  A    between atoms: O_1  and  C_17
REMARK    2  A    between atoms: O_4  and  C_21
REMARK    3  A    between atoms: O_4  and  C_24
REMARK    4  A    between atoms: O_5  and  C_19
REMARK    5  A    between atoms: O_6  and  C_29
REMARK    6  A    between atoms: O_6  and  C_33
REMARK    7  A    between atoms: O_7  and  C_31
REMARK    8  A    between atoms: O_7  and  C_34
REMARK    9  A    between atoms: C_16  and  C_21
REMARK   10  A    between atoms: C_24  and  C_26
REMARK   11  A    between atoms: C_25  and  C_28
REMARK                            x       y       z     vdW  Elec       q    Type
REMARK                         _______ _______ _______ _____ _____    ______ ____
ROOT
ATOM      3  C   UNL     1       9.117  68.102  35.362  0.00  0.00    +0.129 A 
ATOM      4  C   UNL     1       9.940  67.199  36.036  0.00  0.00    +0.053 A 
ATOM      5  C   UNL     1      10.769  66.339  35.320  0.00  0.00    -0.006 A 
ATOM     22  C   UNL     1      10.778  66.375  33.925  0.00  0.00    +0.019 A 
ATOM     23  C   UNL     1       9.954  67.279  33.244  0.00  0.00    +0.037 A 
ATOM     24  C   UNL     1       9.969  67.309  31.767  0.00  0.00    +0.195 C 
ATOM     25  C   UNL     1       9.094  68.267  31.061  0.00  0.00    +0.037 A 
ATOM     26  C   UNL     1       9.099  68.306  29.661  0.00  0.00    +0.012 A 
ATOM     27  C   UNL     1       8.275  69.207  28.986  0.00  0.00    +0.004 A 
ATOM     28  C   UNL     1       7.447  70.068  29.703  0.00  0.00    +0.046 A 
ATOM     29  C   UNL     1       7.438  70.033  31.097  0.00  0.00    +0.128 A 
ATOM     32  C   UNL     1       8.263  69.131  31.779  0.00  0.00    +0.075 A 
ATOM     33  C   UNL     1       8.248  69.100  33.255  0.00  0.00    +0.202 C 
ATOM     34  O   UNL     1       7.522  69.858  33.885  0.00  0.00    -0.286 OA
ATOM     35  O   UNL     1      10.697  66.552  31.137  0.00  0.00    -0.287 OA
ATOM     36  C   UNL     1       9.124  68.142  33.961  0.00  0.00    +0.075 A 
ENDROOT
BRANCH   3   1
ATOM      1  O   UNL     1       8.332  68.914  36.124  0.00  0.00    -0.506 OA
ATOM      2  H   UNL     1       8.234  68.558  37.019  0.00  0.00    +0.292 HD
ENDBRANCH   3   1
BRANCH  29  30
ATOM     30  O   UNL     1       6.605  70.904  31.734  0.00  0.00    -0.506 OA
ATOM     31  H   UNL     1       5.902  71.206  31.139  0.00  0.00    +0.292 HD
ENDBRANCH  29  30
BRANCH   5   6
ATOM      6  C   UNL     1      11.649  65.377  36.046  0.00  0.00    +0.268 C 
BRANCH   6   7
ATOM      7  O   UNL     1      12.602  64.833  35.142  0.00  0.00    -0.457 OA
BRANCH   7   8
ATOM      8  C   UNL     1      13.678  64.217  35.713  0.00  0.00    +0.332 C 
ATOM     21  O   UNL     1      13.931  64.154  36.905  0.00  0.00    -0.246 OA
BRANCH   8   9
ATOM      9  C   UNL     1      14.497  63.630  34.627  0.00  0.00    +0.092 C 
ATOM     10  C   UNL     1      15.770  64.019  34.477  0.00  0.00    +0.015 C 
BRANCH  10  11
ATOM     11  C   UNL     1      16.680  63.516  33.433  0.00  0.00    -0.021 A 
ATOM     12  C   UNL     1      17.822  64.241  33.094  0.00  0.00    +0.012 A 
ATOM     13  C   UNL     1      18.684  63.765  32.106  0.00  0.00    +0.050 A 
ATOM     14  C   UNL     1      18.403  62.562  31.457  0.00  0.00    +0.162 A 
ATOM     15  C   UNL     1      17.262  61.837  31.795  0.00  0.00    +0.162 A 
ATOM     20  C   UNL     1      16.400  62.313  32.784  0.00  0.00    +0.057 A 
BRANCH  15  16
ATOM     16  O   UNL     1      16.977  60.661  31.169  0.00  0.00    -0.491 OA
ATOM     17  C   UNL     1      16.947  59.486  31.978  0.00  0.00    +0.277 C 
ENDBRANCH  15  16
BRANCH  14  18
ATOM     18  O   UNL     1      19.253  62.107  30.494  0.00  0.00    -0.491 OA
ATOM     19  C   UNL     1      19.303  62.845  29.274  0.00  0.00    +0.277 C 
ENDBRANCH  14  18
ENDBRANCH  10  11
ENDBRANCH   8   9
ENDBRANCH   7   8
ENDBRANCH   6   7
ENDBRANCH   5   6
TORSDOF 9
ENDMDL
MODEL 7
REMARK VINA RESULT:    -7.054      3.387      8.580
REMARK INTER + INTRA:         -12.211
REMARK INTER:                 -11.100
REMARK INTRA:                  -1.110
REMARK UNBOUND:                -1.857
REMARK  Name = C:\Users\HP\Downloads\Anthraquinone_pdb\AD57.pdb
REMARK  11 active torsions:
REMARK  status: ('A' for Active; 'I' for Inactive)
REMARK    1  A    between atoms: O_1  and  C_17
REMARK    2  A    between atoms: O_4  and  C_21
REMARK    3  A    between atoms: O_4  and  C_24
REMARK    4  A    between atoms: O_5  and  C_19
REMARK    5  A    between atoms: O_6  and  C_29
REMARK    6  A    between atoms: O_6  and  C_33
REMARK    7  A    between atoms: O_7  and  C_31
REMARK    8  A    between atoms: O_7  and  C_34
REMARK    9  A    between atoms: C_16  and  C_21
REMARK   10  A    between atoms: C_24  and  C_26
REMARK   11  A    between atoms: C_25  and  C_28
REMARK                            x       y       z     vdW  Elec       q    Type
REMARK                         _______ _______ _______ _____ _____    ______ ____
ROOT
ATOM      3  C   UNL     1      18.981  60.097  29.628  0.00  0.00    +0.129 A 
ATOM      4  C   UNL     1      18.571  58.808  29.283  0.00  0.00    +0.053 A 
ATOM      5  C   UNL     1      17.499  58.215  29.947  0.00  0.00    -0.006 A 
ATOM     22  C   UNL     1      16.833  58.907  30.959  0.00  0.00    +0.019 A 
ATOM     23  C   UNL     1      17.241  60.200  31.308  0.00  0.00    +0.037 A 
ATOM     24  C   UNL     1      16.531  60.924  32.382  0.00  0.00    +0.195 C 
ATOM     25  C   UNL     1      16.973  62.288  32.741  0.00  0.00    +0.037 A 
ATOM     26  C   UNL     1      16.307  62.984  33.757  0.00  0.00    +0.012 A 
ATOM     27  C   UNL     1      16.719  64.273  34.103  0.00  0.00    +0.004 A 
ATOM     28  C   UNL     1      17.790  64.866  33.439  0.00  0.00    +0.046 A 
ATOM     29  C   UNL     1      18.455  64.175  32.426  0.00  0.00    +0.128 A 
ATOM     32  C   UNL     1      18.047  62.883  32.075  0.00  0.00    +0.075 A 
ATOM     33  C   UNL     1      18.757  62.158  31.002  0.00  0.00    +0.202 C 
ATOM     34  O   UNL     1      19.697  62.681  30.417  0.00  0.00    -0.286 OA
ATOM     35  O   UNL     1      15.589  60.403  32.966  0.00  0.00    -0.287 OA
ATOM     36  C   UNL     1      18.315  60.795  30.643  0.00  0.00    +0.075 A 
ENDROOT
BRANCH   3   1
ATOM      1  O   UNL     1      20.036  60.616  28.939  0.00  0.00    -0.506 OA
ATOM      2  H   UNL     1      20.592  61.159  29.516  0.00  0.00    +0.292 HD
ENDBRANCH   3   1
BRANCH  29  30
ATOM     30  O   UNL     1      19.494  64.816  31.818  0.00  0.00    -0.506 OA
ATOM     31  H   UNL     1      20.288  64.260  31.815  0.00  0.00    +0.292 HD
ENDBRANCH  29  30
BRANCH   5   6
ATOM      6  C   UNL     1      17.063  56.839  29.573  0.00  0.00    +0.268 C 
BRANCH   6   7
ATOM      7  O   UNL     1      18.167  56.124  29.032  0.00  0.00    -0.457 OA
BRANCH   7   8
ATOM      8  C   UNL     1      17.946  55.506  27.836  0.00  0.00    +0.332 C 
ATOM     21  O   UNL     1      16.992  54.803  27.546  0.00  0.00    -0.246 OA
BRANCH   8   9
ATOM      9  C   UNL     1      19.074  55.838  26.935  0.00  0.00    +0.092 C 
ATOM     10  C   UNL     1      20.299  56.013  27.450  0.00  0.00    +0.015 C 
BRANCH  10  11
ATOM     11  C   UNL     1      21.496  56.355  26.661  0.00  0.00    -0.021 A 
ATOM     12  C   UNL     1      22.145  55.371  25.916  0.00  0.00    +0.012 A 
ATOM     13  C   UNL     1      23.278  55.694  25.169  0.00  0.00    +0.050 A 
ATOM     14  C   UNL     1      23.762  57.004  25.168  0.00  0.00    +0.162 A 
ATOM     15  C   UNL     1      23.114  57.987  25.913  0.00  0.00    +0.162 A 
ATOM     20  C   UNL     1      21.980  57.664  26.660  0.00  0.00    +0.057 A 
BRANCH  15  16
ATOM     16  O   UNL     1      23.577  59.269  25.920  0.00  0.00    -0.491 OA
ATOM     17  C   UNL     1      22.613  60.304  26.107  0.00  0.00    +0.277 C 
ENDBRANCH  15  16
BRANCH  14  18
ATOM     18  O   UNL     1      24.869  57.307  24.434  0.00  0.00    -0.491 OA
ATOM     19  C   UNL     1      24.726  57.305  23.015  0.00  0.00    +0.277 C 
ENDBRANCH  14  18
ENDBRANCH  10  11
ENDBRANCH   8   9
ENDBRANCH   7   8
ENDBRANCH   6   7
ENDBRANCH   5   6
TORSDOF 9
ENDMDL
MODEL 8
REMARK VINA RESULT:    -6.984      2.490      7.364
REMARK INTER + INTRA:         -12.108
REMARK INTER:                 -10.860
REMARK INTRA:                  -1.248
REMARK UNBOUND:                -1.857
REMARK  Name = C:\Users\HP\Downloads\Anthraquinone_pdb\AD57.pdb
REMARK  11 active torsions:
REMARK  status: ('A' for Active; 'I' for Inactive)
REMARK    1  A    between atoms: O_1  and  C_17
REMARK    2  A    between atoms: O_4  and  C_21
REMARK    3  A    between atoms: O_4  and  C_24
REMARK    4  A    between atoms: O_5  and  C_19
REMARK    5  A    between atoms: O_6  and  C_29
REMARK    6  A    between atoms: O_6  and  C_33
REMARK    7  A    between atoms: O_7  and  C_31
REMARK    8  A    between atoms: O_7  and  C_34
REMARK    9  A    between atoms: C_16  and  C_21
REMARK   10  A    between atoms: C_24  and  C_26
REMARK   11  A    between atoms: C_25  and  C_28
REMARK                            x       y       z     vdW  Elec       q    Type
REMARK                         _______ _______ _______ _____ _____    ______ ____
ROOT
ATOM      3  C   UNL     1      21.518  58.450  30.569  0.00  0.00    +0.129 A 
ATOM      4  C   UNL     1      22.427  57.894  29.668  0.00  0.00    +0.053 A 
ATOM      5  C   UNL     1      22.710  58.545  28.468  0.00  0.00    -0.006 A 
ATOM     22  C   UNL     1      22.083  59.754  28.164  0.00  0.00    +0.019 A 
ATOM     23  C   UNL     1      21.170  60.316  29.064  0.00  0.00    +0.037 A 
ATOM     24  C   UNL     1      20.511  61.595  28.732  0.00  0.00    +0.195 C 
ATOM     25  C   UNL     1      19.549  62.176  29.692  0.00  0.00    +0.037 A 
ATOM     26  C   UNL     1      18.918  63.388  29.389  0.00  0.00    +0.012 A 
ATOM     27  C   UNL     1      18.007  63.943  30.289  0.00  0.00    +0.004 A 
ATOM     28  C   UNL     1      17.725  63.293  31.488  0.00  0.00    +0.046 A 
ATOM     29  C   UNL     1      18.352  62.085  31.794  0.00  0.00    +0.128 A 
ATOM     32  C   UNL     1      19.266  61.524  30.894  0.00  0.00    +0.075 A 
ATOM     33  C   UNL     1      19.925  60.245  31.226  0.00  0.00    +0.202 C 
ATOM     34  O   UNL     1      19.679  59.674  32.281  0.00  0.00    -0.286 OA
ATOM     35  O   UNL     1      20.758  62.167  27.678  0.00  0.00    -0.287 OA
ATOM     36  C   UNL     1      20.887  59.664  30.266  0.00  0.00    +0.075 A 
ENDROOT
BRANCH   3   1
ATOM      1  O   UNL     1      21.288  57.761  31.722  0.00  0.00    -0.506 OA
ATOM      2  H   UNL     1      22.103  57.670  32.237  0.00  0.00    +0.292 HD
ENDBRANCH   3   1
BRANCH  29  30
ATOM     30  O   UNL     1      18.030  61.504  32.985  0.00  0.00    -0.506 OA
ATOM     31  H   UNL     1      17.934  62.172  33.680  0.00  0.00    +0.292 HD
ENDBRANCH  29  30
BRANCH   5   6
ATOM      6  C   UNL     1      23.684  57.948  27.510  0.00  0.00    +0.268 C 
BRANCH   6   7
ATOM      7  O   UNL     1      23.082  57.849  26.224  0.00  0.00    -0.457 OA
BRANCH   7   8
ATOM      8  C   UNL     1      23.356  56.709  25.526  0.00  0.00    +0.332 C 
ATOM     21  O   UNL     1      24.420  56.412  25.009  0.00  0.00    -0.246 OA
BRANCH   8   9
ATOM      9  C   UNL     1      22.126  55.883  25.503  0.00  0.00    +0.092 C 
ATOM     10  C   UNL     1      20.995  56.369  26.030  0.00  0.00    +0.015 C 
BRANCH  10  11
ATOM     11  C   UNL     1      19.713  55.643  26.075  0.00  0.00    -0.021 A 
ATOM     12  C   UNL     1      19.373  54.763  25.047  0.00  0.00    +0.012 A 
ATOM     13  C   UNL     1      18.160  54.075  25.090  0.00  0.00    +0.050 A 
ATOM     14  C   UNL     1      17.288  54.267  26.163  0.00  0.00    +0.162 A 
ATOM     15  C   UNL     1      17.628  55.146  27.190  0.00  0.00    +0.162 A 
ATOM     20  C   UNL     1      18.840  55.834  27.147  0.00  0.00    +0.057 A 
BRANCH  15  16
ATOM     16  O   UNL     1      16.784  55.341  28.242  0.00  0.00    -0.491 OA
ATOM     17  C   UNL     1      16.397  56.686  28.521  0.00  0.00    +0.277 C 
ENDBRANCH  15  16
BRANCH  14  18
ATOM     18  O   UNL     1      16.107  53.589  26.193  0.00  0.00    -0.491 OA
ATOM     19  C   UNL     1      16.144  52.244  26.666  0.00  0.00    +0.277 C 
ENDBRANCH  14  18
ENDBRANCH  10  11
ENDBRANCH   8   9
ENDBRANCH   7   8
ENDBRANCH   6   7
ENDBRANCH   5   6
TORSDOF 9
ENDMDL
MODEL 9
REMARK VINA RESULT:    -6.786      2.634      5.254
REMARK INTER + INTRA:         -11.817
REMARK INTER:                 -10.257
REMARK INTRA:                  -1.560
REMARK UNBOUND:                -1.857
REMARK  Name = C:\Users\HP\Downloads\Anthraquinone_pdb\AD57.pdb
REMARK  11 active torsions:
REMARK  status: ('A' for Active; 'I' for Inactive)
REMARK    1  A    between atoms: O_1  and  C_17
REMARK    2  A    between atoms: O_4  and  C_21
REMARK    3  A    between atoms: O_4  and  C_24
REMARK    4  A    between atoms: O_5  and  C_19
REMARK    5  A    between atoms: O_6  and  C_29
REMARK    6  A    between atoms: O_6  and  C_33
REMARK    7  A    between atoms: O_7  and  C_31
REMARK    8  A    between atoms: O_7  and  C_34
REMARK    9  A    between atoms: C_16  and  C_21
REMARK   10  A    between atoms: C_24  and  C_26
REMARK   11  A    between atoms: C_25  and  C_28
REMARK                            x       y       z     vdW  Elec       q    Type
REMARK                         _______ _______ _______ _____ _____    ______ ____
ROOT
ATOM      3  C   UNL     1      21.068  58.860  30.050  0.00  0.00    +0.129 A 
ATOM      4  C   UNL     1      22.297  58.924  30.709  0.00  0.00    +0.053 A 
ATOM      5  C   UNL     1      22.975  57.752  31.038  0.00  0.00    -0.006 A 
ATOM     22  C   UNL     1      22.428  56.511  30.711  0.00  0.00    +0.019 A 
ATOM     23  C   UNL     1      21.196  56.442  30.050  0.00  0.00    +0.037 A 
ATOM     24  C   UNL     1      20.623  55.123  29.710  0.00  0.00    +0.195 C 
ATOM     25  C   UNL     1      19.322  55.065  29.013  0.00  0.00    +0.037 A 
ATOM     26  C   UNL     1      18.769  53.822  28.684  0.00  0.00    +0.012 A 
ATOM     27  C   UNL     1      17.539  53.757  28.027  0.00  0.00    +0.004 A 
ATOM     28  C   UNL     1      16.862  54.929  27.698  0.00  0.00    +0.046 A 
ATOM     29  C   UNL     1      17.409  56.170  28.023  0.00  0.00    +0.128 A 
ATOM     32  C   UNL     1      18.642  56.240  28.682  0.00  0.00    +0.075 A 
ATOM     33  C   UNL     1      19.214  57.558  29.023  0.00  0.00    +0.202 C 
ATOM     34  O   UNL     1      18.619  58.587  28.732  0.00  0.00    -0.286 OA
ATOM     35  O   UNL     1      21.219  54.093  30.000  0.00  0.00    -0.287 OA
ATOM     36  C   UNL     1      20.516  57.616  29.720  0.00  0.00    +0.075 A 
ENDROOT
BRANCH   3   1
ATOM      1  O   UNL     1      20.459  60.044  29.758  0.00  0.00    -0.506 OA
ATOM      2  H   UNL     1      20.965  60.539  29.098  0.00  0.00    +0.292 HD
ENDBRANCH   3   1
BRANCH  29  30
ATOM     30  O   UNL     1      16.692  57.275  27.670  0.00  0.00    -0.506 OA
ATOM     31  H   UNL     1      16.090  57.537  28.382  0.00  0.00    +0.292 HD
ENDBRANCH  29  30
BRANCH   5   6
ATOM      6  C   UNL     1      24.289  57.826  31.740  0.00  0.00    +0.268 C 
BRANCH   6   7
ATOM      7  O   UNL     1      25.262  58.385  30.865  0.00  0.00    -0.457 OA
BRANCH   7   8
ATOM      8  C   UNL     1      25.682  57.576  29.849  0.00  0.00    +0.332 C 
ATOM     21  O   UNL     1      26.140  56.451  29.958  0.00  0.00    -0.246 OA
BRANCH   8   9
ATOM      9  C   UNL     1      25.485  58.305  28.575  0.00  0.00    +0.092 C 
ATOM     10  C   UNL     1      24.478  57.955  27.763  0.00  0.00    +0.015 C 
BRANCH  10  11
ATOM     11  C   UNL     1      24.186  58.596  26.469  0.00  0.00    -0.021 A 
ATOM     12  C   UNL     1      22.968  58.359  25.832  0.00  0.00    +0.012 A 
ATOM     13  C   UNL     1      22.691  58.966  24.607  0.00  0.00    +0.050 A 
ATOM     14  C   UNL     1      23.633  59.812  24.019  0.00  0.00    +0.162 A 
ATOM     15  C   UNL     1      24.851  60.049  24.656  0.00  0.00    +0.162 A 
ATOM     20  C   UNL     1      25.128  59.442  25.881  0.00  0.00    +0.057 A 
BRANCH  15  16
ATOM     16  O   UNL     1      25.778  60.872  24.092  0.00  0.00    -0.491 OA
ATOM     17  C   UNL     1      27.108  60.368  23.979  0.00  0.00    +0.277 C 
ENDBRANCH  15  16
BRANCH  14  18
ATOM     18  O   UNL     1      23.351  60.399  22.823  0.00  0.00    -0.491 OA
ATOM     19  C   UNL     1      21.977  60.476  22.448  0.00  0.00    +0.277 C 
ENDBRANCH  14  18
ENDBRANCH  10  11
ENDBRANCH   8   9
ENDBRANCH   7   8
ENDBRANCH   6   7
ENDBRANCH   5   6
TORSDOF 9
ENDMDL
