MODEL 1
REMARK VINA RESULT:    -7.754      0.000      0.000
REMARK INTER + INTRA:          -9.114
REMARK INTER:                  -9.114
REMARK INTRA:                   0.000
REMARK UNBOUND:                 0.000
REMARK  Name = C:\Users\HP\Downloads\Anthraquinone_pdb\AD58.pdb
REMARK  6 active torsions:
REMARK  status: ('A' for Active; 'I' for Inactive)
REMARK    1  A    between atoms: O_3  and  C_15
REMARK    2  A    between atoms: O_4  and  C_16
REMARK    3  A    between atoms: O_5  and  C_19
REMARK    4  A    between atoms: O_6  and  C_20
REMARK    5  A    between atoms: O_7  and  C_21
REMARK    6  A    between atoms: O_8  and  C_22
REMARK                            x       y       z     vdW  Elec       q    Type
REMARK                         _______ _______ _______ _____ _____    ______ ____
ROOT
ATOM      1  O   UNL     1      18.303  56.428  25.010  0.00  0.00    -0.286 OA
ATOM      2  C   UNL     1      19.382  55.986  25.384  0.00  0.00    +0.198 C 
ATOM      3  C   UNL     1      20.611  56.393  24.671  0.00  0.00    +0.040 A 
ATOM      4  C   UNL     1      20.522  57.273  23.586  0.00  0.00    +0.061 A 
ATOM      5  C   UNL     1      21.678  57.662  22.908  0.00  0.00    +0.163 A 
ATOM      6  C   UNL     1      22.921  57.175  23.308  0.00  0.00    +0.201 A 
ATOM      7  C   UNL     1      23.013  56.298  24.389  0.00  0.00    +0.174 A 
ATOM     14  C   UNL     1      21.856  55.905  25.072  0.00  0.00    +0.078 A 
ATOM     15  C   UNL     1      21.964  54.975  26.216  0.00  0.00    +0.198 C 
ATOM     16  C   UNL     1      20.735  54.569  26.928  0.00  0.00    +0.040 A 
ATOM     17  C   UNL     1      20.824  53.688  28.013  0.00  0.00    +0.061 A 
ATOM     18  C   UNL     1      19.668  53.298  28.690  0.00  0.00    +0.163 A 
ATOM     19  C   UNL     1      18.425  53.784  28.289  0.00  0.00    +0.201 A 
ATOM     20  C   UNL     1      18.333  54.662  27.209  0.00  0.00    +0.174 A 
ATOM     27  O   UNL     1      23.043  54.533  26.589  0.00  0.00    -0.286 OA
ATOM     28  C   UNL     1      19.490  55.056  26.525  0.00  0.00    +0.078 A 
ENDROOT
BRANCH   7   8
ATOM      8  O   UNL     1      24.254  55.850  24.741  0.00  0.00    -0.503 OA
ATOM      9  H   UNL     1      24.274  55.575  25.669  0.00  0.00    +0.292 HD
ENDBRANCH   7   8
BRANCH   6  10
ATOM     10  O   UNL     1      24.046  57.560  22.640  0.00  0.00    -0.501 OA
ATOM     11  H   UNL     1      24.023  58.526  22.531  0.00  0.00    +0.292 HD
ENDBRANCH   6  10
BRANCH   5  12
ATOM     12  O   UNL     1      21.576  58.520  21.854  0.00  0.00    -0.503 OA
ATOM     13  H   UNL     1      21.472  59.423  22.204  0.00  0.00    +0.292 HD
ENDBRANCH   5  12
BRANCH  20  21
ATOM     21  O   UNL     1      17.092  55.109  26.858  0.00  0.00    -0.503 OA
ATOM     22  H   UNL     1      16.405  54.484  27.138  0.00  0.00    +0.292 HD
ENDBRANCH  20  21
BRANCH  19  23
ATOM     23  O   UNL     1      17.299  53.398  28.956  0.00  0.00    -0.501 OA
ATOM     24  H   UNL     1      17.025  54.125  29.542  0.00  0.00    +0.292 HD
ENDBRANCH  19  23
BRANCH  18  25
ATOM     25  O   UNL     1      19.769  52.440  29.743  0.00  0.00    -0.503 OA
ATOM     26  H   UNL     1      19.288  51.620  29.533  0.00  0.00    +0.292 HD
ENDBRANCH  18  25
TORSDOF 6
ENDMDL
MODEL 2
REMARK VINA RESULT:    -7.709      0.852      3.115
REMARK INTER + INTRA:          -9.060
REMARK INTER:                  -9.060
REMARK INTRA:                   0.000
REMARK UNBOUND:                 0.000
REMARK  Name = C:\Users\HP\Downloads\Anthraquinone_pdb\AD58.pdb
REMARK  6 active torsions:
REMARK  status: ('A' for Active; 'I' for Inactive)
REMARK    1  A    between atoms: O_3  and  C_15
REMARK    2  A    between atoms: O_4  and  C_16
REMARK    3  A    between atoms: O_5  and  C_19
REMARK    4  A    between atoms: O_6  and  C_20
REMARK    5  A    between atoms: O_7  and  C_21
REMARK    6  A    between atoms: O_8  and  C_22
REMARK                            x       y       z     vdW  Elec       q    Type
REMARK                         _______ _______ _______ _____ _____    ______ ____
ROOT
ATOM      1  O   UNL     1      22.841  54.818  26.439  0.00  0.00    -0.286 OA
ATOM      2  C   UNL     1      21.759  55.240  26.050  0.00  0.00    +0.198 C 
ATOM      3  C   UNL     1      21.720  56.161  24.895  0.00  0.00    +0.040 A 
ATOM      4  C   UNL     1      22.914  56.534  24.268  0.00  0.00    +0.061 A 
ATOM      5  C   UNL     1      22.887  57.404  23.177  0.00  0.00    +0.163 A 
ATOM      6  C   UNL     1      21.672  57.903  22.712  0.00  0.00    +0.201 A 
ATOM      7  C   UNL     1      20.479  57.534  23.334  0.00  0.00    +0.174 A 
ATOM     14  C   UNL     1      20.503  56.662  24.429  0.00  0.00    +0.078 A 
ATOM     15  C   UNL     1      19.235  56.276  25.082  0.00  0.00    +0.198 C 
ATOM     16  C   UNL     1      19.274  55.355  26.237  0.00  0.00    +0.040 A 
ATOM     17  C   UNL     1      18.080  54.983  26.865  0.00  0.00    +0.061 A 
ATOM     18  C   UNL     1      18.108  54.114  27.957  0.00  0.00    +0.163 A 
ATOM     19  C   UNL     1      19.323  53.616  28.423  0.00  0.00    +0.201 A 
ATOM     20  C   UNL     1      20.515  53.984  27.799  0.00  0.00    +0.174 A 
ATOM     27  O   UNL     1      18.153  56.699  24.694  0.00  0.00    -0.286 OA
ATOM     28  C   UNL     1      20.492  54.856  26.704  0.00  0.00    +0.078 A 
ENDROOT
BRANCH   7   8
ATOM      8  O   UNL     1      19.316  58.051  22.841  0.00  0.00    -0.503 OA
ATOM      9  H   UNL     1      19.470  58.518  22.007  0.00  0.00    +0.292 HD
ENDBRANCH   7   8
BRANCH   6  10
ATOM     10  O   UNL     1      21.652  58.753  21.644  0.00  0.00    -0.501 OA
ATOM     11  H   UNL     1      22.170  58.353  20.924  0.00  0.00    +0.292 HD
ENDBRANCH   6  10
BRANCH   5  12
ATOM     12  O   UNL     1      24.057  57.757  22.575  0.00  0.00    -0.503 OA
ATOM     13  H   UNL     1      24.779  57.252  22.990  0.00  0.00    +0.292 HD
ENDBRANCH   5  12
BRANCH  20  21
ATOM     21  O   UNL     1      21.677  53.467  28.294  0.00  0.00    -0.503 OA
ATOM     22  H   UNL     1      22.201  53.054  27.591  0.00  0.00    +0.292 HD
ENDBRANCH  20  21
BRANCH  19  23
ATOM     23  O   UNL     1      19.342  52.767  29.491  0.00  0.00    -0.501 OA
ATOM     24  H   UNL     1      19.882  51.992  29.257  0.00  0.00    +0.292 HD
ENDBRANCH  19  23
BRANCH  18  25
ATOM     25  O   UNL     1      16.938  53.761  28.559  0.00  0.00    -0.503 OA
ATOM     26  H   UNL     1      16.482  54.564  28.865  0.00  0.00    +0.292 HD
ENDBRANCH  18  25
TORSDOF 6
ENDMDL
MODEL 3
REMARK VINA RESULT:    -7.678      0.176      6.700
REMARK INTER + INTRA:          -9.025
REMARK INTER:                  -9.025
REMARK INTRA:                   0.000
REMARK UNBOUND:                 0.000
REMARK  Name = C:\Users\HP\Downloads\Anthraquinone_pdb\AD58.pdb
REMARK  6 active torsions:
REMARK  status: ('A' for Active; 'I' for Inactive)
REMARK    1  A    between atoms: O_3  and  C_15
REMARK    2  A    between atoms: O_4  and  C_16
REMARK    3  A    between atoms: O_5  and  C_19
REMARK    4  A    between atoms: O_6  and  C_20
REMARK    5  A    between atoms: O_7  and  C_21
REMARK    6  A    between atoms: O_8  and  C_22
REMARK                            x       y       z     vdW  Elec       q    Type
REMARK                         _______ _______ _______ _____ _____    ______ ____
ROOT
ATOM      1  O   UNL     1      23.013  54.390  26.655  0.00  0.00    -0.286 OA
ATOM      2  C   UNL     1      21.931  54.833  26.293  0.00  0.00    +0.198 C 
ATOM      3  C   UNL     1      20.709  54.425  27.018  0.00  0.00    +0.040 A 
ATOM      4  C   UNL     1      20.809  53.544  28.100  0.00  0.00    +0.061 A 
ATOM      5  C   UNL     1      19.661  53.153  28.790  0.00  0.00    +0.163 A 
ATOM      6  C   UNL     1      18.413  53.638  28.402  0.00  0.00    +0.201 A 
ATOM      7  C   UNL     1      18.309  54.517  27.324  0.00  0.00    +0.174 A 
ATOM     14  C   UNL     1      19.459  54.911  26.629  0.00  0.00    +0.078 A 
ATOM     15  C   UNL     1      19.339  55.843  25.488  0.00  0.00    +0.198 C 
ATOM     16  C   UNL     1      20.561  56.251  24.763  0.00  0.00    +0.040 A 
ATOM     17  C   UNL     1      20.460  57.131  23.680  0.00  0.00    +0.061 A 
ATOM     18  C   UNL     1      21.609  57.521  22.990  0.00  0.00    +0.163 A 
ATOM     19  C   UNL     1      22.856  57.035  23.377  0.00  0.00    +0.201 A 
ATOM     20  C   UNL     1      22.960  56.157  24.457  0.00  0.00    +0.174 A 
ATOM     27  O   UNL     1      18.256  56.285  25.126  0.00  0.00    -0.286 OA
ATOM     28  C   UNL     1      21.810  55.762  25.152  0.00  0.00    +0.078 A 
ENDROOT
BRANCH   7   8
ATOM      8  O   UNL     1      17.065  54.963  26.984  0.00  0.00    -0.503 OA
ATOM      9  H   UNL     1      16.894  54.831  26.039  0.00  0.00    +0.292 HD
ENDBRANCH   7   8
BRANCH   6  10
ATOM     10  O   UNL     1      17.295  53.252  29.081  0.00  0.00    -0.501 OA
ATOM     11  H   UNL     1      17.308  52.283  29.168  0.00  0.00    +0.292 HD
ENDBRANCH   6  10
BRANCH   5  12
ATOM     12  O   UNL     1      19.774  52.295  29.843  0.00  0.00    -0.503 OA
ATOM     13  H   UNL     1      18.891  52.177  30.237  0.00  0.00    +0.292 HD
ENDBRANCH   5  12
BRANCH  20  21
ATOM     21  O   UNL     1      24.205  55.711  24.795  0.00  0.00    -0.503 OA
ATOM     22  H   UNL     1      24.169  54.800  25.126  0.00  0.00    +0.292 HD
ENDBRANCH  20  21
BRANCH  19  23
ATOM     23  O   UNL     1      23.974  57.420  22.697  0.00  0.00    -0.501 OA
ATOM     24  H   UNL     1      24.575  56.657  22.636  0.00  0.00    +0.292 HD
ENDBRANCH  19  23
BRANCH  18  25
ATOM     25  O   UNL     1      21.497  58.378  21.937  0.00  0.00    -0.503 OA
ATOM     26  H   UNL     1      20.873  58.007  21.289  0.00  0.00    +0.292 HD
ENDBRANCH  18  25
TORSDOF 6
ENDMDL
MODEL 4
REMARK VINA RESULT:    -7.594      0.959      5.987
REMARK INTER + INTRA:          -8.926
REMARK INTER:                  -8.926
REMARK INTRA:                   0.000
REMARK UNBOUND:                 0.000
REMARK  Name = C:\Users\HP\Downloads\Anthraquinone_pdb\AD58.pdb
REMARK  6 active torsions:
REMARK  status: ('A' for Active; 'I' for Inactive)
REMARK    1  A    between atoms: O_3  and  C_15
REMARK    2  A    between atoms: O_4  and  C_16
REMARK    3  A    between atoms: O_5  and  C_19
REMARK    4  A    between atoms: O_6  and  C_20
REMARK    5  A    between atoms: O_7  and  C_21
REMARK    6  A    between atoms: O_8  and  C_22
REMARK                            x       y       z     vdW  Elec       q    Type
REMARK                         _______ _______ _______ _____ _____    ______ ____
ROOT
ATOM      1  O   UNL     1      18.405  56.823  24.242  0.00  0.00    -0.286 OA
ATOM      2  C   UNL     1      19.453  56.433  24.741  0.00  0.00    +0.198 C 
ATOM      3  C   UNL     1      19.400  55.526  25.906  0.00  0.00    +0.040 A 
ATOM      4  C   UNL     1      18.159  55.129  26.418  0.00  0.00    +0.061 A 
ATOM      5  C   UNL     1      18.099  54.273  27.518  0.00  0.00    +0.163 A 
ATOM      6  C   UNL     1      19.274  53.813  28.110  0.00  0.00    +0.201 A 
ATOM      7  C   UNL     1      20.513  54.205  27.603  0.00  0.00    +0.174 A 
ATOM     14  C   UNL     1      20.577  55.065  26.499  0.00  0.00    +0.078 A 
ATOM     15  C   UNL     1      21.894  55.475  25.969  0.00  0.00    +0.198 C 
ATOM     16  C   UNL     1      21.947  56.382  24.804  0.00  0.00    +0.040 A 
ATOM     17  C   UNL     1      23.188  56.780  24.293  0.00  0.00    +0.061 A 
ATOM     18  C   UNL     1      23.247  57.637  23.194  0.00  0.00    +0.163 A 
ATOM     19  C   UNL     1      22.073  58.099  22.603  0.00  0.00    +0.201 A 
ATOM     20  C   UNL     1      20.833  57.704  23.109  0.00  0.00    +0.174 A 
ATOM     27  O   UNL     1      22.941  55.086  26.469  0.00  0.00    -0.286 OA
ATOM     28  C   UNL     1      20.769  56.845  24.213  0.00  0.00    +0.078 A 
ENDROOT
BRANCH   7   8
ATOM      8  O   UNL     1      21.633  53.727  28.218  0.00  0.00    -0.503 OA
ATOM      9  H   UNL     1      21.446  52.904  28.692  0.00  0.00    +0.292 HD
ENDBRANCH   7   8
BRANCH   6  10
ATOM     10  O   UNL     1      19.208  52.976  29.185  0.00  0.00    -0.501 OA
ATOM     11  H   UNL     1      18.570  52.269  28.985  0.00  0.00    +0.292 HD
ENDBRANCH   6  10
BRANCH   5  12
ATOM     12  O   UNL     1      16.884  53.895  28.004  0.00  0.00    -0.503 OA
ATOM     13  H   UNL     1      16.883  54.038  28.968  0.00  0.00    +0.292 HD
ENDBRANCH   5  12
BRANCH  20  21
ATOM     21  O   UNL     1      19.714  58.184  22.493  0.00  0.00    -0.503 OA
ATOM     22  H   UNL     1      19.294  57.498  21.953  0.00  0.00    +0.292 HD
ENDBRANCH  20  21
BRANCH  19  23
ATOM     23  O   UNL     1      22.138  58.936  21.528  0.00  0.00    -0.501 OA
ATOM     24  H   UNL     1      21.358  58.779  20.968  0.00  0.00    +0.292 HD
ENDBRANCH  19  23
BRANCH  18  25
ATOM     25  O   UNL     1      24.462  58.016  22.707  0.00  0.00    -0.503 OA
ATOM     26  H   UNL     1      24.451  57.948  21.736  0.00  0.00    +0.292 HD
ENDBRANCH  18  25
TORSDOF 6
ENDMDL
MODEL 5
REMARK VINA RESULT:    -7.136      2.797      5.026
REMARK INTER + INTRA:          -8.387
REMARK INTER:                  -8.387
REMARK INTRA:                   0.000
REMARK UNBOUND:                 0.000
REMARK  Name = C:\Users\HP\Downloads\Anthraquinone_pdb\AD58.pdb
REMARK  6 active torsions:
REMARK  status: ('A' for Active; 'I' for Inactive)
REMARK    1  A    between atoms: O_3  and  C_15
REMARK    2  A    between atoms: O_4  and  C_16
REMARK    3  A    between atoms: O_5  and  C_19
REMARK    4  A    between atoms: O_6  and  C_20
REMARK    5  A    between atoms: O_7  and  C_21
REMARK    6  A    between atoms: O_8  and  C_22
REMARK                            x       y       z     vdW  Elec       q    Type
REMARK                         _______ _______ _______ _____ _____    ______ ____
ROOT
ATOM      1  O   UNL     1      20.739  57.219  26.100  0.00  0.00    -0.286 OA
ATOM      2  C   UNL     1      20.437  56.359  26.918  0.00  0.00    +0.198 C 
ATOM      3  C   UNL     1      21.183  56.285  28.191  0.00  0.00    +0.040 A 
ATOM      4  C   UNL     1      22.217  57.195  28.441  0.00  0.00    +0.061 A 
ATOM      5  C   UNL     1      22.926  57.133  29.641  0.00  0.00    +0.163 A 
ATOM      6  C   UNL     1      22.609  56.164  30.591  0.00  0.00    +0.201 A 
ATOM      7  C   UNL     1      21.579  55.255  30.346  0.00  0.00    +0.174 A 
ATOM     14  C   UNL     1      20.864  55.315  29.144  0.00  0.00    +0.078 A 
ATOM     15  C   UNL     1      19.775  54.348  28.893  0.00  0.00    +0.198 C 
ATOM     16  C   UNL     1      19.030  54.422  27.620  0.00  0.00    +0.040 A 
ATOM     17  C   UNL     1      17.996  53.511  27.370  0.00  0.00    +0.061 A 
ATOM     18  C   UNL     1      17.288  53.573  26.169  0.00  0.00    +0.163 A 
ATOM     19  C   UNL     1      17.607  54.541  25.218  0.00  0.00    +0.201 A 
ATOM     20  C   UNL     1      18.635  55.451  25.464  0.00  0.00    +0.174 A 
ATOM     27  O   UNL     1      19.475  53.488  29.710  0.00  0.00    -0.286 OA
ATOM     28  C   UNL     1      19.350  55.392  26.667  0.00  0.00    +0.078 A 
ENDROOT
BRANCH   7   8
ATOM      8  O   UNL     1      21.307  54.327  31.309  0.00  0.00    -0.503 OA
ATOM      9  H   UNL     1      21.752  53.487  31.118  0.00  0.00    +0.292 HD
ENDBRANCH   7   8
BRANCH   6  10
ATOM     10  O   UNL     1      23.306  56.109  31.762  0.00  0.00    -0.501 OA
ATOM     11  H   UNL     1      23.967  55.398  31.692  0.00  0.00    +0.292 HD
ENDBRANCH   6  10
BRANCH   5  12
ATOM     12  O   UNL     1      23.930  58.026  29.870  0.00  0.00    -0.503 OA
ATOM     13  H   UNL     1      24.633  57.870  29.215  0.00  0.00    +0.292 HD
ENDBRANCH   5  12
BRANCH  20  21
ATOM     21  O   UNL     1      18.907  56.379  24.500  0.00  0.00    -0.503 OA
ATOM     22  H   UNL     1      19.465  56.002  23.803  0.00  0.00    +0.292 HD
ENDBRANCH  20  21
BRANCH  19  23
ATOM     23  O   UNL     1      16.909  54.595  24.047  0.00  0.00    -0.501 OA
ATOM     24  H   UNL     1      15.962  54.500  24.249  0.00  0.00    +0.292 HD
ENDBRANCH  19  23
BRANCH  18  25
ATOM     25  O   UNL     1      16.285  52.681  25.939  0.00  0.00    -0.503 OA
ATOM     26  H   UNL     1      16.173  52.118  26.725  0.00  0.00    +0.292 HD
ENDBRANCH  18  25
TORSDOF 6
ENDMDL
MODEL 6
REMARK VINA RESULT:    -7.069      4.026      5.822
REMARK INTER + INTRA:          -8.309
REMARK INTER:                  -8.309
REMARK INTRA:                   0.000
REMARK UNBOUND:                 0.000
REMARK  Name = C:\Users\HP\Downloads\Anthraquinone_pdb\AD58.pdb
REMARK  6 active torsions:
REMARK  status: ('A' for Active; 'I' for Inactive)
REMARK    1  A    between atoms: O_3  and  C_15
REMARK    2  A    between atoms: O_4  and  C_16
REMARK    3  A    between atoms: O_5  and  C_19
REMARK    4  A    between atoms: O_6  and  C_20
REMARK    5  A    between atoms: O_7  and  C_21
REMARK    6  A    between atoms: O_8  and  C_22
REMARK                            x       y       z     vdW  Elec       q    Type
REMARK                         _______ _______ _______ _____ _____    ______ ____
ROOT
ATOM      1  O   UNL     1      15.934  56.128  29.088  0.00  0.00    -0.286 OA
ATOM      2  C   UNL     1      17.051  56.447  28.700  0.00  0.00    +0.198 C 
ATOM      3  C   UNL     1      17.744  57.575  29.356  0.00  0.00    +0.040 A 
ATOM      4  C   UNL     1      17.116  58.257  30.405  0.00  0.00    +0.061 A 
ATOM      5  C   UNL     1      17.764  59.323  31.030  0.00  0.00    +0.163 A 
ATOM      6  C   UNL     1      19.034  59.713  30.610  0.00  0.00    +0.201 A 
ATOM      7  C   UNL     1      19.663  59.036  29.565  0.00  0.00    +0.174 A 
ATOM     14  C   UNL     1      19.017  57.966  28.935  0.00  0.00    +0.078 A 
ATOM     15  C   UNL     1      19.691  57.255  27.829  0.00  0.00    +0.198 C 
ATOM     16  C   UNL     1      18.998  56.127  27.173  0.00  0.00    +0.040 A 
ATOM     17  C   UNL     1      19.625  55.446  26.123  0.00  0.00    +0.061 A 
ATOM     18  C   UNL     1      18.977  54.381  25.497  0.00  0.00    +0.163 A 
ATOM     19  C   UNL     1      17.706  53.992  25.916  0.00  0.00    +0.201 A 
ATOM     20  C   UNL     1      17.078  54.668  26.963  0.00  0.00    +0.174 A 
ATOM     27  O   UNL     1      20.807  57.575  27.440  0.00  0.00    -0.286 OA
ATOM     28  C   UNL     1      17.724  55.739  27.593  0.00  0.00    +0.078 A 
ENDROOT
BRANCH   7   8
ATOM      8  O   UNL     1      20.907  59.456  29.191  0.00  0.00    -0.503 OA
ATOM      9  H   UNL     1      21.523  59.426  29.938  0.00  0.00    +0.292 HD
ENDBRANCH   7   8
BRANCH   6  10
ATOM     10  O   UNL     1      19.661  60.756  31.226  0.00  0.00    -0.501 OA
ATOM     11  H   UNL     1      19.016  61.208  31.797  0.00  0.00    +0.292 HD
ENDBRANCH   6  10
BRANCH   5  12
ATOM     12  O   UNL     1      17.141  59.977  32.051  0.00  0.00    -0.503 OA
ATOM     13  H   UNL     1      17.596  60.827  32.192  0.00  0.00    +0.292 HD
ENDBRANCH   5  12
BRANCH  20  21
ATOM     21  O   UNL     1      15.833  54.247  27.335  0.00  0.00    -0.503 OA
ATOM     22  H   UNL     1      15.701  54.357  28.289  0.00  0.00    +0.292 HD
ENDBRANCH  20  21
BRANCH  19  23
ATOM     23  O   UNL     1      17.078  52.949  25.300  0.00  0.00    -0.501 OA
ATOM     24  H   UNL     1      16.939  52.244  25.955  0.00  0.00    +0.292 HD
ENDBRANCH  19  23
BRANCH  18  25
ATOM     25  O   UNL     1      19.599  53.727  24.476  0.00  0.00    -0.503 OA
ATOM     26  H   UNL     1      20.365  53.242  24.829  0.00  0.00    +0.292 HD
ENDBRANCH  18  25
TORSDOF 6
ENDMDL
MODEL 7
REMARK VINA RESULT:    -6.976      1.957      2.629
REMARK INTER + INTRA:          -8.199
REMARK INTER:                  -8.199
REMARK INTRA:                   0.000
REMARK UNBOUND:                 0.000
REMARK  Name = C:\Users\HP\Downloads\Anthraquinone_pdb\AD58.pdb
REMARK  6 active torsions:
REMARK  status: ('A' for Active; 'I' for Inactive)
REMARK    1  A    between atoms: O_3  and  C_15
REMARK    2  A    between atoms: O_4  and  C_16
REMARK    3  A    between atoms: O_5  and  C_19
REMARK    4  A    between atoms: O_6  and  C_20
REMARK    5  A    between atoms: O_7  and  C_21
REMARK    6  A    between atoms: O_8  and  C_22
REMARK                            x       y       z     vdW  Elec       q    Type
REMARK                         _______ _______ _______ _____ _____    ______ ____
ROOT
ATOM      1  O   UNL     1      19.635  56.489  24.482  0.00  0.00    -0.286 OA
ATOM      2  C   UNL     1      20.065  56.137  25.573  0.00  0.00    +0.198 C 
ATOM      3  C   UNL     1      21.379  56.641  26.025  0.00  0.00    +0.040 A 
ATOM      4  C   UNL     1      22.106  57.509  25.202  0.00  0.00    +0.061 A 
ATOM      5  C   UNL     1      23.347  57.990  25.621  0.00  0.00    +0.163 A 
ATOM      6  C   UNL     1      23.865  57.606  26.857  0.00  0.00    +0.201 A 
ATOM      7  C   UNL     1      23.143  56.740  27.679  0.00  0.00    +0.174 A 
ATOM     14  C   UNL     1      21.898  56.256  27.263  0.00  0.00    +0.078 A 
ATOM     15  C   UNL     1      21.140  55.340  28.140  0.00  0.00    +0.198 C 
ATOM     16  C   UNL     1      19.827  54.836  27.689  0.00  0.00    +0.040 A 
ATOM     17  C   UNL     1      19.100  53.967  28.510  0.00  0.00    +0.061 A 
ATOM     18  C   UNL     1      17.859  53.486  28.091  0.00  0.00    +0.163 A 
ATOM     19  C   UNL     1      17.342  53.868  26.855  0.00  0.00    +0.201 A 
ATOM     20  C   UNL     1      18.063  54.735  26.033  0.00  0.00    +0.174 A 
ATOM     27  O   UNL     1      21.571  54.987  29.231  0.00  0.00    -0.286 OA
ATOM     28  C   UNL     1      19.310  55.220  26.450  0.00  0.00    +0.078 A 
ENDROOT
BRANCH   7   8
ATOM      8  O   UNL     1      23.694  56.395  28.879  0.00  0.00    -0.503 OA
ATOM      9  H   UNL     1      23.591  57.107  29.527  0.00  0.00    +0.292 HD
ENDBRANCH   7   8
BRANCH   6  10
ATOM     10  O   UNL     1      25.079  58.080  27.260  0.00  0.00    -0.501 OA
ATOM     11  H   UNL     1      25.495  57.412  27.833  0.00  0.00    +0.292 HD
ENDBRANCH   6  10
BRANCH   5  12
ATOM     12  O   UNL     1      24.044  58.835  24.811  0.00  0.00    -0.503 OA
ATOM     13  H   UNL     1      23.555  58.929  23.974  0.00  0.00    +0.292 HD
ENDBRANCH   5  12
BRANCH  20  21
ATOM     21  O   UNL     1      17.512  55.079  24.833  0.00  0.00    -0.503 OA
ATOM     22  H   UNL     1      17.362  56.036  24.781  0.00  0.00    +0.292 HD
ENDBRANCH  20  21
BRANCH  19  23
ATOM     23  O   UNL     1      16.128  53.393  26.451  0.00  0.00    -0.501 OA
ATOM     24  H   UNL     1      15.554  53.315  27.233  0.00  0.00    +0.292 HD
ENDBRANCH  19  23
BRANCH  18  25
ATOM     25  O   UNL     1      17.162  52.640  28.900  0.00  0.00    -0.503 OA
ATOM     26  H   UNL     1      17.660  52.507  29.726  0.00  0.00    +0.292 HD
ENDBRANCH  18  25
TORSDOF 6
ENDMDL
MODEL 8
REMARK VINA RESULT:    -6.716      2.615      4.629
REMARK INTER + INTRA:          -7.894
REMARK INTER:                  -7.894
REMARK INTRA:                   0.000
REMARK UNBOUND:                 0.000
REMARK  Name = C:\Users\HP\Downloads\Anthraquinone_pdb\AD58.pdb
REMARK  6 active torsions:
REMARK  status: ('A' for Active; 'I' for Inactive)
REMARK    1  A    between atoms: O_3  and  C_15
REMARK    2  A    between atoms: O_4  and  C_16
REMARK    3  A    between atoms: O_5  and  C_19
REMARK    4  A    between atoms: O_6  and  C_20
REMARK    5  A    between atoms: O_7  and  C_21
REMARK    6  A    between atoms: O_8  and  C_22
REMARK                            x       y       z     vdW  Elec       q    Type
REMARK                         _______ _______ _______ _____ _____    ______ ____
ROOT
ATOM      1  O   UNL     1      19.619  54.179  29.836  0.00  0.00    -0.286 OA
ATOM      2  C   UNL     1      19.920  54.796  28.822  0.00  0.00    +0.198 C 
ATOM      3  C   UNL     1      21.124  55.653  28.833  0.00  0.00    +0.040 A 
ATOM      4  C   UNL     1      21.898  55.743  29.996  0.00  0.00    +0.061 A 
ATOM      5  C   UNL     1      23.036  56.550  30.014  0.00  0.00    +0.163 A 
ATOM      6  C   UNL     1      23.404  57.267  28.878  0.00  0.00    +0.201 A 
ATOM      7  C   UNL     1      22.635  57.179  27.716  0.00  0.00    +0.174 A 
ATOM     14  C   UNL     1      21.492  56.371  27.694  0.00  0.00    +0.078 A 
ATOM     15  C   UNL     1      20.684  56.285  26.459  0.00  0.00    +0.198 C 
ATOM     16  C   UNL     1      19.480  55.428  26.449  0.00  0.00    +0.040 A 
ATOM     17  C   UNL     1      18.706  55.338  25.286  0.00  0.00    +0.061 A 
ATOM     18  C   UNL     1      17.567  54.533  25.268  0.00  0.00    +0.163 A 
ATOM     19  C   UNL     1      17.198  53.817  26.405  0.00  0.00    +0.201 A 
ATOM     20  C   UNL     1      17.968  53.903  27.566  0.00  0.00    +0.174 A 
ATOM     27  O   UNL     1      20.984  56.903  25.446  0.00  0.00    -0.286 OA
ATOM     28  C   UNL     1      19.112  54.712  27.589  0.00  0.00    +0.078 A 
ENDROOT
BRANCH   7   8
ATOM      8  O   UNL     1      23.038  57.901  26.630  0.00  0.00    -0.503 OA
ATOM      9  H   UNL     1      22.830  58.840  26.740  0.00  0.00    +0.292 HD
ENDBRANCH   7   8
BRANCH   6  10
ATOM     10  O   UNL     1      24.518  58.053  28.903  0.00  0.00    -0.501 OA
ATOM     11  H   UNL     1      24.803  58.152  29.828  0.00  0.00    +0.292 HD
ENDBRANCH   6  10
BRANCH   5  12
ATOM     12  O   UNL     1      23.780  56.628  31.153  0.00  0.00    -0.503 OA
ATOM     13  H   UNL     1      24.057  55.727  31.400  0.00  0.00    +0.292 HD
ENDBRANCH   5  12
BRANCH  20  21
ATOM     21  O   UNL     1      17.564  53.182  28.652  0.00  0.00    -0.503 OA
ATOM     22  H   UNL     1      17.395  53.761  29.411  0.00  0.00    +0.292 HD
ENDBRANCH  20  21
BRANCH  19  23
ATOM     23  O   UNL     1      16.083  53.031  26.380  0.00  0.00    -0.501 OA
ATOM     24  H   UNL     1      15.301  53.609  26.345  0.00  0.00    +0.292 HD
ENDBRANCH  19  23
BRANCH  18  25
ATOM     25  O   UNL     1      16.822  54.455  24.130  0.00  0.00    -0.503 OA
ATOM     26  H   UNL     1      15.883  54.360  24.370  0.00  0.00    +0.292 HD
ENDBRANCH  18  25
TORSDOF 6
ENDMDL
MODEL 9
REMARK VINA RESULT:    -6.705      2.419      6.958
REMARK INTER + INTRA:          -7.881
REMARK INTER:                  -7.881
REMARK INTRA:                   0.000
REMARK UNBOUND:                 0.000
REMARK  Name = C:\Users\HP\Downloads\Anthraquinone_pdb\AD58.pdb
REMARK  6 active torsions:
REMARK  status: ('A' for Active; 'I' for Inactive)
REMARK    1  A    between atoms: O_3  and  C_15
REMARK    2  A    between atoms: O_4  and  C_16
REMARK    3  A    between atoms: O_5  and  C_19
REMARK    4  A    between atoms: O_6  and  C_20
REMARK    5  A    between atoms: O_7  and  C_21
REMARK    6  A    between atoms: O_8  and  C_22
REMARK                            x       y       z     vdW  Elec       q    Type
REMARK                         _______ _______ _______ _____ _____    ______ ____
ROOT
ATOM      1  O   UNL     1      23.539  54.537  25.298  0.00  0.00    -0.286 OA
ATOM      2  C   UNL     1      23.134  55.661  25.562  0.00  0.00    +0.198 C 
ATOM      3  C   UNL     1      22.062  55.822  26.566  0.00  0.00    +0.040 A 
ATOM      4  C   UNL     1      21.529  54.691  27.196  0.00  0.00    +0.061 A 
ATOM      5  C   UNL     1      20.517  54.834  28.145  0.00  0.00    +0.163 A 
ATOM      6  C   UNL     1      20.033  56.100  28.466  0.00  0.00    +0.201 A 
ATOM      7  C   UNL     1      20.561  57.230  27.841  0.00  0.00    +0.174 A 
ATOM     14  C   UNL     1      21.577  57.091  26.888  0.00  0.00    +0.078 A 
ATOM     15  C   UNL     1      22.130  58.294  26.230  0.00  0.00    +0.198 C 
ATOM     16  C   UNL     1      23.202  58.133  25.226  0.00  0.00    +0.040 A 
ATOM     17  C   UNL     1      23.734  59.264  24.596  0.00  0.00    +0.061 A 
ATOM     18  C   UNL     1      24.746  59.121  23.646  0.00  0.00    +0.163 A 
ATOM     19  C   UNL     1      25.228  57.855  23.323  0.00  0.00    +0.201 A 
ATOM     20  C   UNL     1      24.702  56.725  23.950  0.00  0.00    +0.174 A 
ATOM     27  O   UNL     1      21.724  59.418  26.494  0.00  0.00    -0.286 OA
ATOM     28  C   UNL     1      23.685  56.863  24.904  0.00  0.00    +0.078 A 
ENDROOT
BRANCH   7   8
ATOM      8  O   UNL     1      20.052  58.447  28.190  0.00  0.00    -0.503 OA
ATOM      9  H   UNL     1      19.146  58.553  27.864  0.00  0.00    +0.292 HD
ENDBRANCH   7   8
BRANCH   6  10
ATOM     10  O   UNL     1      19.042  56.232  29.395  0.00  0.00    -0.501 OA
ATOM     11  H   UNL     1      19.391  56.745  30.145  0.00  0.00    +0.292 HD
ENDBRANCH   6  10
BRANCH   5  12
ATOM     12  O   UNL     1      20.009  53.724  28.751  0.00  0.00    -0.503 OA
ATOM     13  H   UNL     1      20.746  53.119  28.949  0.00  0.00    +0.292 HD
ENDBRANCH   5  12
BRANCH  20  21
ATOM     21  O   UNL     1      25.210  55.508  23.599  0.00  0.00    -0.503 OA
ATOM     22  H   UNL     1      25.020  55.307  22.670  0.00  0.00    +0.292 HD
ENDBRANCH  20  21
BRANCH  19  23
ATOM     23  O   UNL     1      26.218  57.723  22.393  0.00  0.00    -0.501 OA
ATOM     24  H   UNL     1      25.880  58.040  21.538  0.00  0.00    +0.292 HD
ENDBRANCH  19  23
BRANCH  18  25
ATOM     25  O   UNL     1      25.253  60.230  23.039  0.00  0.00    -0.503 OA
ATOM     26  H   UNL     1      25.760  59.960  22.254  0.00  0.00    +0.292 HD
ENDBRANCH  18  25
TORSDOF 6
ENDMDL
