MODEL 1
REMARK VINA RESULT:    -8.629      0.000      0.000
REMARK INTER + INTRA:         -13.704
REMARK INTER:                 -12.664
REMARK INTRA:                  -1.040
REMARK UNBOUND:                -1.040
REMARK  Name = C:\Users\HP\Downloads\Anthraquinone_pdb\AD5.pdb
REMARK  13 active torsions:
REMARK  status: ('A' for Active; 'I' for Inactive)
REMARK    1  A    between atoms: O_1  and  C_13
REMARK    2  A    between atoms: O_1  and  C_19
REMARK    3  A    between atoms: O_3  and  C_14
REMARK    4  A    between atoms: O_4  and  C_22
REMARK    5  A    between atoms: O_5  and  C_24
REMARK    6  A    between atoms: O_6  and  C_26
REMARK    7  A    between atoms: O_8  and  C_30
REMARK    8  A    between atoms: O_11  and  C_35
REMARK    9  A    between atoms: O_11  and  C_39
REMARK   10  A    between atoms: N_12  and  C_21
REMARK   11  A    between atoms: C_14  and  C_25
REMARK   12  A    between atoms: C_23  and  C_29
REMARK   13  A    between atoms: C_25  and  C_30
REMARK                            x       y       z     vdW  Elec       q    Type
REMARK                         _______ _______ _______ _____ _____    ______ ____
ROOT
ATOM     14  C   UNL     1      21.061  57.017  27.914  0.00  0.00    +0.158 C 
ATOM     15  C   UNL     1      20.738  58.450  28.258  0.00  0.00    +0.030 A 
ATOM     16  C   UNL     1      19.850  58.712  29.314  0.00  0.00    +0.134 A 
ATOM     17  C   UNL     1      19.509  60.026  29.655  0.00  0.00    +0.078 A 
ATOM     18  C   UNL     1      18.576  60.273  30.774  0.00  0.00    +0.202 C 
ATOM     19  C   UNL     1      18.235  61.665  31.130  0.00  0.00    +0.075 A 
ATOM     20  C   UNL     1      17.358  61.913  32.192  0.00  0.00    +0.132 A 
ATOM     21  C   UNL     1      17.031  63.226  32.534  0.00  0.00    +0.046 A 
ATOM     22  C   UNL     1      17.577  64.291  31.820  0.00  0.00    +0.004 A 
ATOM     23  C   UNL     1      18.452  64.048  30.760  0.00  0.00    +0.012 A 
ATOM     26  C   UNL     1      18.781  62.732  30.414  0.00  0.00    +0.037 A 
ATOM     27  C   UNL     1      19.708  62.484  29.290  0.00  0.00    +0.198 C 
ATOM     28  O   UNL     1      20.183  63.419  28.659  0.00  0.00    -0.286 OA
ATOM     29  O   UNL     1      18.093  59.336  31.399  0.00  0.00    -0.286 OA
ATOM     30  C   UNL     1      20.052  61.090  28.940  0.00  0.00    +0.078 A 
ATOM     31  C   UNL     1      20.934  60.840  27.882  0.00  0.00    +0.132 A 
ATOM     36  C   UNL     1      21.275  59.524  27.527  0.00  0.00    +0.007 A 
ATOM     37  C   UNL     1      22.260  59.314  26.399  0.00  0.00    +0.082 C 
ATOM     38  C   UNL     1      22.316  57.874  25.881  0.00  0.00    +0.133 C 
ATOM     46  C   UNL     1      22.310  56.872  27.038  0.00  0.00    +0.079 C 
ENDROOT
BRANCH  20  24
ATOM     24  O   UNL     1      16.788  60.921  32.933  0.00  0.00    -0.494 OA
ATOM     25  C   UNL     1      17.227  60.787  34.282  0.00  0.00    +0.277 C 
ENDBRANCH  20  24
BRANCH  31  32
ATOM     32  O   UNL     1      21.496  61.865  27.173  0.00  0.00    -0.506 OA
ATOM     33  H   UNL     1      20.822  62.505  26.895  0.00  0.00    +0.292 HD
ENDBRANCH  31  32
BRANCH  16  34
ATOM     34  O   UNL     1      19.328  57.644  29.993  0.00  0.00    -0.506 OA
ATOM     35  H   UNL     1      19.964  57.314  30.645  0.00  0.00    +0.292 HD
ENDBRANCH  16  34
BRANCH  38  39
ATOM     39  C   UNL     1      23.550  57.688  25.046  0.00  0.00    +0.190 C 
ATOM     43  O   UNL     1      24.561  57.159  25.507  0.00  0.00    -0.292 OA
BRANCH  39  40
ATOM     40  C   UNL     1      23.475  58.187  23.618  0.00  0.00    +0.233 C 
BRANCH  40  41
ATOM     41  O   UNL     1      23.106  57.141  22.743  0.00  0.00    -0.387 OA
ATOM     42  H   UNL     1      22.461  56.584  23.211  0.00  0.00    +0.210 HD
ENDBRANCH  40  41
ENDBRANCH  39  40
ENDBRANCH  38  39
BRANCH  38  44
ATOM     44  O   UNL     1      21.227  57.609  25.005  0.00  0.00    -0.381 OA
ATOM     45  H   UNL     1      20.856  58.450  24.691  0.00  0.00    +0.211 HD
ENDBRANCH  38  44
BRANCH  14   1
ATOM      1  O   UNL     1      19.928  56.458  27.252  0.00  0.00    -0.343 OA
BRANCH   1   2
ATOM      2  C   UNL     1      19.671  55.131  27.700  0.00  0.00    +0.253 C 
ATOM      3  C   UNL     1      18.454  55.128  28.628  0.00  0.00    +0.082 C 
ATOM      4  C   UNL     1      17.168  55.391  27.838  0.00  0.00    +0.087 C 
ATOM      5  C   UNL     1      17.059  54.413  26.658  0.00  0.00    +0.160 C 
ATOM      6  C   UNL     1      18.338  54.479  25.811  0.00  0.00    +0.148 C 
ATOM      7  C   UNL     1      18.335  53.461  24.677  0.00  0.00    +0.041 C 
ATOM     13  O   UNL     1      19.494  54.214  26.616  0.00  0.00    -0.346 OA
BRANCH   4  10
ATOM     10  N   UNL     1      16.005  55.287  28.716  0.00  0.00    -0.325 NA
ATOM     11  H   UNL     1      16.080  55.971  29.470  0.00  0.00    +0.119 HD
ATOM     12  H   UNL     1      15.161  55.529  28.200  0.00  0.00    +0.119 HD
ENDBRANCH   4  10
BRANCH   5   8
ATOM      8  O   UNL     1      16.895  53.077  27.138  0.00  0.00    -0.388 OA
ATOM      9  H   UNL     1      16.068  53.046  27.648  0.00  0.00    +0.210 HD
ENDBRANCH   5   8
ENDBRANCH   1   2
ENDBRANCH  14   1
TORSDOF 11
ENDMDL
MODEL 2
REMARK VINA RESULT:    -8.491      3.019      7.453
REMARK INTER + INTRA:         -13.501
REMARK INTER:                 -12.386
REMARK INTRA:                  -1.115
REMARK UNBOUND:                -1.040
REMARK  Name = C:\Users\HP\Downloads\Anthraquinone_pdb\AD5.pdb
REMARK  13 active torsions:
REMARK  status: ('A' for Active; 'I' for Inactive)
REMARK    1  A    between atoms: O_1  and  C_13
REMARK    2  A    between atoms: O_1  and  C_19
REMARK    3  A    between atoms: O_3  and  C_14
REMARK    4  A    between atoms: O_4  and  C_22
REMARK    5  A    between atoms: O_5  and  C_24
REMARK    6  A    between atoms: O_6  and  C_26
REMARK    7  A    between atoms: O_8  and  C_30
REMARK    8  A    between atoms: O_11  and  C_35
REMARK    9  A    between atoms: O_11  and  C_39
REMARK   10  A    between atoms: N_12  and  C_21
REMARK   11  A    between atoms: C_14  and  C_25
REMARK   12  A    between atoms: C_23  and  C_29
REMARK   13  A    between atoms: C_25  and  C_30
REMARK                            x       y       z     vdW  Elec       q    Type
REMARK                         _______ _______ _______ _____ _____    ______ ____
ROOT
ATOM     14  C   UNL     1      21.005  56.048  27.472  0.00  0.00    +0.158 C 
ATOM     15  C   UNL     1      21.915  56.601  26.403  0.00  0.00    +0.030 A 
ATOM     16  C   UNL     1      23.007  57.398  26.787  0.00  0.00    +0.134 A 
ATOM     17  C   UNL     1      23.866  57.946  25.828  0.00  0.00    +0.078 A 
ATOM     18  C   UNL     1      25.010  58.776  26.259  0.00  0.00    +0.202 C 
ATOM     19  C   UNL     1      25.915  59.338  25.236  0.00  0.00    +0.075 A 
ATOM     20  C   UNL     1      27.006  60.120  25.632  0.00  0.00    +0.132 A 
ATOM     21  C   UNL     1      27.866  60.655  24.670  0.00  0.00    +0.046 A 
ATOM     22  C   UNL     1      27.639  60.411  23.317  0.00  0.00    +0.004 A 
ATOM     23  C   UNL     1      26.551  59.633  22.918  0.00  0.00    +0.012 A 
ATOM     26  C   UNL     1      25.687  59.095  23.880  0.00  0.00    +0.037 A 
ATOM     27  C   UNL     1      24.538  58.272  23.449  0.00  0.00    +0.198 C 
ATOM     28  O   UNL     1      24.335  58.063  22.260  0.00  0.00    -0.286 OA
ATOM     29  O   UNL     1      25.206  58.993  27.449  0.00  0.00    -0.286 OA
ATOM     30  C   UNL     1      23.637  57.706  24.475  0.00  0.00    +0.078 A 
ATOM     31  C   UNL     1      22.549  56.919  24.082  0.00  0.00    +0.132 A 
ATOM     36  C   UNL     1      21.676  56.370  25.037  0.00  0.00    +0.007 A 
ATOM     37  C   UNL     1      20.538  55.499  24.557  0.00  0.00    +0.082 C 
ATOM     38  C   UNL     1      19.473  55.224  25.623  0.00  0.00    +0.133 C 
ATOM     46  C   UNL     1      20.116  54.902  26.974  0.00  0.00    +0.079 C 
ENDROOT
BRANCH  20  24
ATOM     24  O   UNL     1      27.288  60.398  26.936  0.00  0.00    -0.494 OA
ATOM     25  C   UNL     1      27.496  61.767  27.276  0.00  0.00    +0.277 C 
ENDBRANCH  20  24
BRANCH  31  32
ATOM     32  O   UNL     1      22.310  56.651  22.762  0.00  0.00    -0.506 OA
ATOM     33  H   UNL     1      22.848  55.903  22.458  0.00  0.00    +0.292 HD
ENDBRANCH  31  32
BRANCH  16  34
ATOM     34  O   UNL     1      23.200  57.621  28.123  0.00  0.00    -0.506 OA
ATOM     35  H   UNL     1      23.098  58.562  28.328  0.00  0.00    +0.292 HD
ENDBRANCH  16  34
BRANCH  38  39
ATOM     39  C   UNL     1      18.605  54.080  25.182  0.00  0.00    +0.190 C 
ATOM     43  O   UNL     1      19.003  53.254  24.361  0.00  0.00    -0.292 OA
BRANCH  39  40
ATOM     40  C   UNL     1      17.225  54.008  25.801  0.00  0.00    +0.233 C 
BRANCH  40  41
ATOM     41  O   UNL     1      16.684  52.710  25.665  0.00  0.00    -0.387 OA
ATOM     42  H   UNL     1      17.278  52.097  26.131  0.00  0.00    +0.210 HD
ENDBRANCH  40  41
ENDBRANCH  39  40
ENDBRANCH  38  39
BRANCH  38  44
ATOM     44  O   UNL     1      18.592  56.332  25.757  0.00  0.00    -0.381 OA
ATOM     45  H   UNL     1      18.449  56.516  26.700  0.00  0.00    +0.211 HD
ENDBRANCH  38  44
BRANCH  14   1
ATOM      1  O   UNL     1      20.200  57.118  27.961  0.00  0.00    -0.343 OA
BRANCH   1   2
ATOM      2  C   UNL     1      19.656  56.811  29.241  0.00  0.00    +0.253 C 
ATOM      3  C   UNL     1      19.877  57.991  30.190  0.00  0.00    +0.082 C 
ATOM      4  C   UNL     1      18.982  59.174  29.803  0.00  0.00    +0.087 C 
ATOM      5  C   UNL     1      17.519  58.721  29.696  0.00  0.00    +0.160 C 
ATOM      6  C   UNL     1      17.416  57.521  28.744  0.00  0.00    +0.148 C 
ATOM      7  C   UNL     1      16.001  56.960  28.668  0.00  0.00    +0.041 C 
ATOM     13  O   UNL     1      18.272  56.456  29.176  0.00  0.00    -0.346 OA
BRANCH   4  10
ATOM     10  N   UNL     1      19.129  60.257  30.773  0.00  0.00    -0.325 NA
ATOM     11  H   UNL     1      18.794  59.950  31.686  0.00  0.00    +0.119 HD
ATOM     12  H   UNL     1      20.117  60.478  30.896  0.00  0.00    +0.119 HD
ENDBRANCH   4  10
BRANCH   5   8
ATOM      8  O   UNL     1      17.028  58.331  30.980  0.00  0.00    -0.388 OA
ATOM      9  H   UNL     1      16.335  57.664  30.841  0.00  0.00    +0.210 HD
ENDBRANCH   5   8
ENDBRANCH   1   2
ENDBRANCH  14   1
TORSDOF 11
ENDMDL
MODEL 3
REMARK VINA RESULT:    -8.216      2.625      3.252
REMARK INTER + INTRA:         -13.098
REMARK INTER:                 -11.957
REMARK INTRA:                  -1.141
REMARK UNBOUND:                -1.040
REMARK  Name = C:\Users\HP\Downloads\Anthraquinone_pdb\AD5.pdb
REMARK  13 active torsions:
REMARK  status: ('A' for Active; 'I' for Inactive)
REMARK    1  A    between atoms: O_1  and  C_13
REMARK    2  A    between atoms: O_1  and  C_19
REMARK    3  A    between atoms: O_3  and  C_14
REMARK    4  A    between atoms: O_4  and  C_22
REMARK    5  A    between atoms: O_5  and  C_24
REMARK    6  A    between atoms: O_6  and  C_26
REMARK    7  A    between atoms: O_8  and  C_30
REMARK    8  A    between atoms: O_11  and  C_35
REMARK    9  A    between atoms: O_11  and  C_39
REMARK   10  A    between atoms: N_12  and  C_21
REMARK   11  A    between atoms: C_14  and  C_25
REMARK   12  A    between atoms: C_23  and  C_29
REMARK   13  A    between atoms: C_25  and  C_30
REMARK                            x       y       z     vdW  Elec       q    Type
REMARK                         _______ _______ _______ _____ _____    ______ ____
ROOT
ATOM     14  C   UNL     1      22.912  59.454  28.121  0.00  0.00    +0.158 C 
ATOM     15  C   UNL     1      21.817  60.355  28.635  0.00  0.00    +0.030 A 
ATOM     16  C   UNL     1      21.274  60.107  29.907  0.00  0.00    +0.134 A 
ATOM     17  C   UNL     1      20.245  60.907  30.416  0.00  0.00    +0.078 A 
ATOM     18  C   UNL     1      19.696  60.627  31.759  0.00  0.00    +0.202 C 
ATOM     19  C   UNL     1      18.618  61.488  32.287  0.00  0.00    +0.075 A 
ATOM     20  C   UNL     1      18.094  61.238  33.561  0.00  0.00    +0.132 A 
ATOM     21  C   UNL     1      17.075  62.047  34.066  0.00  0.00    +0.046 A 
ATOM     22  C   UNL     1      16.580  63.103  33.305  0.00  0.00    +0.004 A 
ATOM     23  C   UNL     1      17.098  63.356  32.035  0.00  0.00    +0.012 A 
ATOM     26  C   UNL     1      18.120  62.546  31.525  0.00  0.00    +0.037 A 
ATOM     27  C   UNL     1      18.664  62.820  30.178  0.00  0.00    +0.198 C 
ATOM     28  O   UNL     1      18.224  63.745  29.507  0.00  0.00    -0.286 OA
ATOM     29  O   UNL     1      20.130  59.696  32.425  0.00  0.00    -0.286 OA
ATOM     30  C   UNL     1      19.747  61.962  29.654  0.00  0.00    +0.078 A 
ATOM     31  C   UNL     1      20.276  62.213  28.384  0.00  0.00    +0.132 A 
ATOM     36  C   UNL     1      21.304  61.410  27.860  0.00  0.00    +0.007 A 
ATOM     37  C   UNL     1      21.862  61.751  26.497  0.00  0.00    +0.082 C 
ATOM     38  C   UNL     1      22.730  60.647  25.887  0.00  0.00    +0.133 C 
ATOM     46  C   UNL     1      23.676  60.049  26.933  0.00  0.00    +0.079 C 
ENDROOT
BRANCH  20  24
ATOM     24  O   UNL     1      18.532  60.223  34.359  0.00  0.00    -0.494 OA
ATOM     25  C   UNL     1      17.863  60.045  35.604  0.00  0.00    +0.277 C 
ENDBRANCH  20  24
BRANCH  31  32
ATOM     32  O   UNL     1      19.819  63.252  27.620  0.00  0.00    -0.506 OA
ATOM     33  H   UNL     1      20.453  63.473  26.921  0.00  0.00    +0.292 HD
ENDBRANCH  31  32
BRANCH  16  34
ATOM     34  O   UNL     1      21.781  59.060  30.627  0.00  0.00    -0.506 OA
ATOM     35  H   UNL     1      21.542  58.217  30.214  0.00  0.00    +0.292 HD
ENDBRANCH  16  34
BRANCH  38  39
ATOM     39  C   UNL     1      23.521  61.206  24.739  0.00  0.00    +0.190 C 
ATOM     43  O   UNL     1      24.746  61.311  24.798  0.00  0.00    -0.292 OA
BRANCH  39  40
ATOM     40  C   UNL     1      22.728  61.630  23.521  0.00  0.00    +0.233 C 
BRANCH  40  41
ATOM     41  O   UNL     1      23.541  62.358  22.625  0.00  0.00    -0.387 OA
ATOM     42  H   UNL     1      24.458  62.287  22.939  0.00  0.00    +0.210 HD
ENDBRANCH  40  41
ENDBRANCH  39  40
ENDBRANCH  38  39
BRANCH  38  44
ATOM     44  O   UNL     1      21.923  59.622  25.321  0.00  0.00    -0.381 OA
ATOM     45  H   UNL     1      22.491  58.885  25.042  0.00  0.00    +0.211 HD
ENDBRANCH  38  44
BRANCH  14   1
ATOM      1  O   UNL     1      22.320  58.210  27.752  0.00  0.00    -0.343 OA
BRANCH   1   2
ATOM      2  C   UNL     1      23.254  57.140  27.865  0.00  0.00    +0.253 C 
ATOM      3  C   UNL     1      22.634  55.999  28.673  0.00  0.00    +0.082 C 
ATOM      4  C   UNL     1      21.532  55.299  27.868  0.00  0.00    +0.087 C 
ATOM      5  C   UNL     1      22.067  54.875  26.492  0.00  0.00    +0.160 C 
ATOM      6  C   UNL     1      22.688  56.087  25.782  0.00  0.00    +0.148 C 
ATOM      7  C   UNL     1      23.325  55.713  24.448  0.00  0.00    +0.041 C 
ATOM     13  O   UNL     1      23.712  56.679  26.591  0.00  0.00    -0.346 OA
BRANCH   4  10
ATOM     10  N   UNL     1      21.017  54.151  28.610  0.00  0.00    -0.325 NA
ATOM     11  H   UNL     1      20.079  54.356  28.954  0.00  0.00    +0.119 HD
ATOM     12  H   UNL     1      20.918  53.353  27.983  0.00  0.00    +0.119 HD
ENDBRANCH   4  10
BRANCH   5   8
ATOM      8  O   UNL     1      23.069  53.868  26.641  0.00  0.00    -0.388 OA
ATOM      9  H   UNL     1      22.622  53.040  26.884  0.00  0.00    +0.210 HD
ENDBRANCH   5   8
ENDBRANCH   1   2
ENDBRANCH  14   1
TORSDOF 11
ENDMDL
MODEL 4
REMARK VINA RESULT:    -7.982      3.420      8.567
REMARK INTER + INTRA:         -12.754
REMARK INTER:                 -11.708
REMARK INTRA:                  -1.047
REMARK UNBOUND:                -1.040
REMARK  Name = C:\Users\HP\Downloads\Anthraquinone_pdb\AD5.pdb
REMARK  13 active torsions:
REMARK  status: ('A' for Active; 'I' for Inactive)
REMARK    1  A    between atoms: O_1  and  C_13
REMARK    2  A    between atoms: O_1  and  C_19
REMARK    3  A    between atoms: O_3  and  C_14
REMARK    4  A    between atoms: O_4  and  C_22
REMARK    5  A    between atoms: O_5  and  C_24
REMARK    6  A    between atoms: O_6  and  C_26
REMARK    7  A    between atoms: O_8  and  C_30
REMARK    8  A    between atoms: O_11  and  C_35
REMARK    9  A    between atoms: O_11  and  C_39
REMARK   10  A    between atoms: N_12  and  C_21
REMARK   11  A    between atoms: C_14  and  C_25
REMARK   12  A    between atoms: C_23  and  C_29
REMARK   13  A    between atoms: C_25  and  C_30
REMARK                            x       y       z     vdW  Elec       q    Type
REMARK                         _______ _______ _______ _____ _____    ______ ____
ROOT
ATOM     14  C   UNL     1      22.675  57.605  27.767  0.00  0.00    +0.158 C 
ATOM     15  C   UNL     1      23.520  57.734  26.524  0.00  0.00    +0.030 A 
ATOM     16  C   UNL     1      24.509  58.731  26.476  0.00  0.00    +0.134 A 
ATOM     17  C   UNL     1      25.304  58.899  25.337  0.00  0.00    +0.078 A 
ATOM     18  C   UNL     1      26.341  59.951  25.316  0.00  0.00    +0.202 C 
ATOM     19  C   UNL     1      27.180  60.108  24.110  0.00  0.00    +0.075 A 
ATOM     20  C   UNL     1      28.170  61.097  24.080  0.00  0.00    +0.132 A 
ATOM     21  C   UNL     1      28.966  61.251  22.944  0.00  0.00    +0.046 A 
ATOM     22  C   UNL     1      28.777  60.422  21.840  0.00  0.00    +0.004 A 
ATOM     23  C   UNL     1      27.791  59.436  21.866  0.00  0.00    +0.012 A 
ATOM     26  C   UNL     1      26.990  59.279  23.003  0.00  0.00    +0.037 A 
ATOM     27  C   UNL     1      25.947  58.232  23.022  0.00  0.00    +0.198 C 
ATOM     28  O   UNL     1      25.777  57.507  22.050  0.00  0.00    -0.286 OA
ATOM     29  O   UNL     1      26.504  60.682  26.285  0.00  0.00    -0.286 OA
ATOM     30  C   UNL     1      25.113  58.072  24.232  0.00  0.00    +0.078 A 
ATOM     31  C   UNL     1      24.127  57.081  24.267  0.00  0.00    +0.132 A 
ATOM     36  C   UNL     1      23.318  56.910  25.404  0.00  0.00    +0.007 A 
ATOM     37  C   UNL     1      22.292  55.800  25.398  0.00  0.00    +0.082 C 
ATOM     38  C   UNL     1      21.260  55.901  26.526  0.00  0.00    +0.133 C 
ATOM     46  C   UNL     1      21.930  56.268  27.853  0.00  0.00    +0.079 C 
ENDROOT
BRANCH  20  24
ATOM     24  O   UNL     1      28.410  61.942  25.123  0.00  0.00    -0.494 OA
ATOM     25  C   UNL     1      29.395  62.952  24.924  0.00  0.00    +0.277 C 
ENDBRANCH  20  24
BRANCH  31  32
ATOM     32  O   UNL     1      23.928  56.243  23.204  0.00  0.00    -0.506 OA
ATOM     33  H   UNL     1      23.064  55.807  23.263  0.00  0.00    +0.292 HD
ENDBRANCH  31  32
BRANCH  16  34
ATOM     34  O   UNL     1      24.667  59.530  27.576  0.00  0.00    -0.506 OA
ATOM     35  H   UNL     1      25.329  59.155  28.176  0.00  0.00    +0.292 HD
ENDBRANCH  16  34
BRANCH  38  39
ATOM     39  C   UNL     1      20.535  54.592  26.661  0.00  0.00    +0.190 C 
ATOM     43  O   UNL     1      20.994  53.674  27.339  0.00  0.00    -0.292 OA
BRANCH  39  40
ATOM     40  C   UNL     1      19.220  54.476  25.919  0.00  0.00    +0.233 C 
BRANCH  40  41
ATOM     41  O   UNL     1      19.423  53.948  24.625  0.00  0.00    -0.387 OA
ATOM     42  H   UNL     1      20.231  54.355  24.268  0.00  0.00    +0.210 HD
ENDBRANCH  40  41
ENDBRANCH  39  40
ENDBRANCH  38  39
BRANCH  38  44
ATOM     44  O   UNL     1      20.256  56.855  26.209  0.00  0.00    -0.381 OA
ATOM     45  H   UNL     1      20.123  56.874  25.246  0.00  0.00    +0.211 HD
ENDBRANCH  38  44
BRANCH  14   1
ATOM      1  O   UNL     1      21.748  58.687  27.783  0.00  0.00    -0.343 OA
BRANCH   1   2
ATOM      2  C   UNL     1      21.750  59.350  29.044  0.00  0.00    +0.253 C 
ATOM      3  C   UNL     1      21.831  60.863  28.829  0.00  0.00    +0.082 C 
ATOM      4  C   UNL     1      20.516  61.401  28.254  0.00  0.00    +0.087 C 
ATOM      5  C   UNL     1      19.332  60.954  29.124  0.00  0.00    +0.160 C 
ATOM      6  C   UNL     1      19.362  59.428  29.295  0.00  0.00    +0.148 C 
ATOM      7  C   UNL     1      18.268  58.927  30.230  0.00  0.00    +0.041 C 
ATOM     13  O   UNL     1      20.616  59.004  29.844  0.00  0.00    -0.346 OA
BRANCH   4  10
ATOM     10  N   UNL     1      20.570  62.857  28.147  0.00  0.00    -0.325 NA
ATOM     11  H   UNL     1      20.625  63.270  29.078  0.00  0.00    +0.119 HD
ATOM     12  H   UNL     1      21.424  63.135  27.665  0.00  0.00    +0.119 HD
ENDBRANCH   4  10
BRANCH   5   8
ATOM      8  O   UNL     1      19.411  61.561  30.415  0.00  0.00    -0.388 OA
ATOM      9  H   UNL     1      19.889  60.950  31.000  0.00  0.00    +0.210 HD
ENDBRANCH   5   8
ENDBRANCH   1   2
ENDBRANCH  14   1
TORSDOF 11
ENDMDL
MODEL 5
REMARK VINA RESULT:    -7.861     22.991     25.765
REMARK INTER + INTRA:         -12.577
REMARK INTER:                 -11.188
REMARK INTRA:                  -1.388
REMARK UNBOUND:                -1.040
REMARK  Name = C:\Users\HP\Downloads\Anthraquinone_pdb\AD5.pdb
REMARK  13 active torsions:
REMARK  status: ('A' for Active; 'I' for Inactive)
REMARK    1  A    between atoms: O_1  and  C_13
REMARK    2  A    between atoms: O_1  and  C_19
REMARK    3  A    between atoms: O_3  and  C_14
REMARK    4  A    between atoms: O_4  and  C_22
REMARK    5  A    between atoms: O_5  and  C_24
REMARK    6  A    between atoms: O_6  and  C_26
REMARK    7  A    between atoms: O_8  and  C_30
REMARK    8  A    between atoms: O_11  and  C_35
REMARK    9  A    between atoms: O_11  and  C_39
REMARK   10  A    between atoms: N_12  and  C_21
REMARK   11  A    between atoms: C_14  and  C_25
REMARK   12  A    between atoms: C_23  and  C_29
REMARK   13  A    between atoms: C_25  and  C_30
REMARK                            x       y       z     vdW  Elec       q    Type
REMARK                         _______ _______ _______ _____ _____    ______ ____
ROOT
ATOM     14  C   UNL     1      24.639  62.138   6.181  0.00  0.00    +0.158 C 
ATOM     15  C   UNL     1      23.817  61.885   4.942  0.00  0.00    +0.030 A 
ATOM     16  C   UNL     1      23.513  60.559   4.589  0.00  0.00    +0.134 A 
ATOM     17  C   UNL     1      22.768  60.277   3.438  0.00  0.00    +0.078 A 
ATOM     18  C   UNL     1      22.458  58.874   3.093  0.00  0.00    +0.202 C 
ATOM     19  C   UNL     1      21.660  58.593   1.881  0.00  0.00    +0.075 A 
ATOM     20  C   UNL     1      21.354  57.269   1.547  0.00  0.00    +0.132 A 
ATOM     21  C   UNL     1      20.601  56.995   0.404  0.00  0.00    +0.046 A 
ATOM     22  C   UNL     1      20.154  58.039  -0.404  0.00  0.00    +0.004 A 
ATOM     23  C   UNL     1      20.458  59.360  -0.075  0.00  0.00    +0.012 A 
ATOM     26  C   UNL     1      21.213  59.638   1.071  0.00  0.00    +0.037 A 
ATOM     27  C   UNL     1      21.530  61.040   1.413  0.00  0.00    +0.198 C 
ATOM     28  O   UNL     1      21.142  61.956   0.699  0.00  0.00    -0.286 OA
ATOM     29  O   UNL     1      22.855  57.958   3.802  0.00  0.00    -0.286 OA
ATOM     30  C   UNL     1      22.323  61.319   2.628  0.00  0.00    +0.078 A 
ATOM     31  C   UNL     1      22.625  62.642   2.969  0.00  0.00    +0.132 A 
ATOM     36  C   UNL     1      23.380  62.936   4.117  0.00  0.00    +0.007 A 
ATOM     37  C   UNL     1      23.647  64.385   4.454  0.00  0.00    +0.082 C 
ATOM     38  C   UNL     1      24.730  64.587   5.518  0.00  0.00    +0.133 C 
ATOM     46  C   UNL     1      24.566  63.590   6.668  0.00  0.00    +0.079 C 
ENDROOT
BRANCH  20  24
ATOM     24  O   UNL     1      21.758  56.201   2.291  0.00  0.00    -0.494 OA
ATOM     25  C   UNL     1      21.117  54.954   2.036  0.00  0.00    +0.277 C 
ENDBRANCH  20  24
BRANCH  31  32
ATOM     32  O   UNL     1      22.188  63.687   2.202  0.00  0.00    -0.506 OA
ATOM     33  H   UNL     1      21.945  64.446   2.756  0.00  0.00    +0.292 HD
ENDBRANCH  31  32
BRANCH  16  34
ATOM     34  O   UNL     1      23.970  59.558   5.402  0.00  0.00    -0.506 OA
ATOM     35  H   UNL     1      23.981  58.714   4.926  0.00  0.00    +0.292 HD
ENDBRANCH  16  34
BRANCH  38  39
ATOM     39  C   UNL     1      24.662  65.993   6.043  0.00  0.00    +0.190 C 
ATOM     43  O   UNL     1      24.007  66.860   5.466  0.00  0.00    -0.292 OA
BRANCH  39  40
ATOM     40  C   UNL     1      25.441  66.273   7.311  0.00  0.00    +0.233 C 
BRANCH  40  41
ATOM     41  O   UNL     1      26.779  66.612   7.009  0.00  0.00    -0.387 OA
ATOM     42  H   UNL     1      27.290  65.785   6.982  0.00  0.00    +0.210 HD
ENDBRANCH  40  41
ENDBRANCH  39  40
ENDBRANCH  38  39
BRANCH  38  44
ATOM     44  O   UNL     1      26.027  64.462   4.949  0.00  0.00    -0.381 OA
ATOM     45  H   UNL     1      26.020  63.749   4.290  0.00  0.00    +0.211 HD
ENDBRANCH  38  44
BRANCH  14   1
ATOM      1  O   UNL     1      25.990  61.785   5.893  0.00  0.00    -0.343 OA
BRANCH   1   2
ATOM      2  C   UNL     1      26.656  61.297   7.054  0.00  0.00    +0.253 C 
ATOM      3  C   UNL     1      27.068  59.839   6.835  0.00  0.00    +0.082 C 
ATOM      4  C   UNL     1      28.213  59.745   5.820  0.00  0.00    +0.087 C 
ATOM      5  C   UNL     1      29.368  60.669   6.233  0.00  0.00    +0.160 C 
ATOM      6  C   UNL     1      28.839  62.094   6.450  0.00  0.00    +0.148 C 
ATOM      7  C   UNL     1      29.919  63.043   6.957  0.00  0.00    +0.041 C 
ATOM     13  O   UNL     1      27.781  62.101   7.416  0.00  0.00    -0.346 OA
BRANCH   4  10
ATOM     10  N   UNL     1      28.664  58.361   5.695  0.00  0.00    -0.325 NA
ATOM     11  H   UNL     1      28.724  58.106   4.709  0.00  0.00    +0.119 HD
ATOM     12  H   UNL     1      29.609  58.273   6.066  0.00  0.00    +0.119 HD
ENDBRANCH   4  10
BRANCH   5   8
ATOM      8  O   UNL     1      29.957  60.209   7.451  0.00  0.00    -0.388 OA
ATOM      9  H   UNL     1      30.859  60.568   7.497  0.00  0.00    +0.210 HD
ENDBRANCH   5   8
ENDBRANCH   1   2
ENDBRANCH  14   1
TORSDOF 11
ENDMDL
MODEL 6
REMARK VINA RESULT:    -7.651     18.649     21.310
REMARK INTER + INTRA:         -12.268
REMARK INTER:                 -11.055
REMARK INTRA:                  -1.214
REMARK UNBOUND:                -1.040
REMARK  Name = C:\Users\HP\Downloads\Anthraquinone_pdb\AD5.pdb
REMARK  13 active torsions:
REMARK  status: ('A' for Active; 'I' for Inactive)
REMARK    1  A    between atoms: O_1  and  C_13
REMARK    2  A    between atoms: O_1  and  C_19
REMARK    3  A    between atoms: O_3  and  C_14
REMARK    4  A    between atoms: O_4  and  C_22
REMARK    5  A    between atoms: O_5  and  C_24
REMARK    6  A    between atoms: O_6  and  C_26
REMARK    7  A    between atoms: O_8  and  C_30
REMARK    8  A    between atoms: O_11  and  C_35
REMARK    9  A    between atoms: O_11  and  C_39
REMARK   10  A    between atoms: N_12  and  C_21
REMARK   11  A    between atoms: C_14  and  C_25
REMARK   12  A    between atoms: C_23  and  C_29
REMARK   13  A    between atoms: C_25  and  C_30
REMARK                            x       y       z     vdW  Elec       q    Type
REMARK                         _______ _______ _______ _____ _____    ______ ____
ROOT
ATOM     14  C   UNL     1      14.780  39.456  20.113  0.00  0.00    +0.158 C 
ATOM     15  C   UNL     1      15.657  39.789  21.295  0.00  0.00    +0.030 A 
ATOM     16  C   UNL     1      15.907  38.796  22.256  0.00  0.00    +0.134 A 
ATOM     17  C   UNL     1      16.700  39.066  23.377  0.00  0.00    +0.078 A 
ATOM     18  C   UNL     1      16.951  38.001  24.370  0.00  0.00    +0.202 C 
ATOM     19  C   UNL     1      17.800  38.299  25.542  0.00  0.00    +0.075 A 
ATOM     20  C   UNL     1      18.051  37.297  26.487  0.00  0.00    +0.132 A 
ATOM     21  C   UNL     1      18.853  37.571  27.596  0.00  0.00    +0.046 A 
ATOM     22  C   UNL     1      19.404  38.840  27.764  0.00  0.00    +0.004 A 
ATOM     23  C   UNL     1      19.155  39.841  26.825  0.00  0.00    +0.012 A 
ATOM     26  C   UNL     1      18.352  39.570  25.711  0.00  0.00    +0.037 A 
ATOM     27  C   UNL     1      18.094  40.636  24.721  0.00  0.00    +0.198 C 
ATOM     28  O   UNL     1      18.573  41.753  24.872  0.00  0.00    -0.286 OA
ATOM     29  O   UNL     1      16.463  36.887  24.224  0.00  0.00    -0.286 OA
ATOM     30  C   UNL     1      17.248  40.335  23.547  0.00  0.00    +0.078 A 
ATOM     31  C   UNL     1      17.001  41.333  22.598  0.00  0.00    +0.132 A 
ATOM     36  C   UNL     1      16.199  41.074  21.474  0.00  0.00    +0.007 A 
ATOM     37  C   UNL     1      15.994  42.179  20.463  0.00  0.00    +0.082 C 
ATOM     38  C   UNL     1      14.864  41.909  19.465  0.00  0.00    +0.133 C 
ATOM     46  C   UNL     1      14.906  40.463  18.965  0.00  0.00    +0.079 C 
ENDROOT
BRANCH  20  24
ATOM     24  O   UNL     1      17.546  36.035  26.385  0.00  0.00    -0.494 OA
ATOM     25  C   UNL     1      18.474  34.957  26.469  0.00  0.00    +0.277 C 
ENDBRANCH  20  24
BRANCH  31  32
ATOM     32  O   UNL     1      17.540  42.583  22.730  0.00  0.00    -0.506 OA
ATOM     33  H   UNL     1      17.449  42.906  23.640  0.00  0.00    +0.292 HD
ENDBRANCH  31  32
BRANCH  16  34
ATOM     34  O   UNL     1      15.348  37.562  22.063  0.00  0.00    -0.506 OA
ATOM     35  H   UNL     1      14.769  37.332  22.805  0.00  0.00    +0.292 HD
ENDBRANCH  16  34
BRANCH  38  39
ATOM     39  C   UNL     1      14.980  42.858  18.307  0.00  0.00    +0.190 C 
ATOM     43  O   UNL     1      14.168  42.841  17.383  0.00  0.00    -0.292 OA
BRANCH  39  40
ATOM     40  C   UNL     1      16.145  43.824  18.345  0.00  0.00    +0.233 C 
BRANCH  40  41
ATOM     41  O   UNL     1      17.172  43.401  17.472  0.00  0.00    -0.387 OA
ATOM     42  H   UNL     1      18.018  43.520  17.937  0.00  0.00    +0.210 HD
ENDBRANCH  40  41
ENDBRANCH  39  40
ENDBRANCH  38  39
BRANCH  38  44
ATOM     44  O   UNL     1      13.597  42.184  20.049  0.00  0.00    -0.381 OA
ATOM     45  H   UNL     1      12.926  41.613  19.641  0.00  0.00    +0.211 HD
ENDBRANCH  38  44
BRANCH  14   1
ATOM      1  O   UNL     1      13.430  39.398  20.570  0.00  0.00    -0.343 OA
BRANCH   1   2
ATOM      2  C   UNL     1      12.584  38.779  19.606  0.00  0.00    +0.253 C 
ATOM      3  C   UNL     1      12.907  37.286  19.521  0.00  0.00    +0.082 C 
ATOM      4  C   UNL     1      12.438  36.556  20.784  0.00  0.00    +0.087 C 
ATOM      5  C   UNL     1      10.958  36.864  21.058  0.00  0.00    +0.160 C 
ATOM      6  C   UNL     1      10.744  38.384  21.097  0.00  0.00    +0.148 C 
ATOM      7  C   UNL     1       9.276  38.758  21.268  0.00  0.00    +0.041 C 
ATOM     13  O   UNL     1      11.197  38.991  19.880  0.00  0.00    -0.346 OA
BRANCH   4  10
ATOM     10  N   UNL     1      12.661  35.119  20.650  0.00  0.00    -0.325 NA
ATOM     11  H   UNL     1      13.104  34.758  21.495  0.00  0.00    +0.119 HD
ATOM     12  H   UNL     1      11.766  34.637  20.574  0.00  0.00    +0.119 HD
ENDBRANCH   4  10
BRANCH   5   8
ATOM      8  O   UNL     1      10.140  36.312  20.025  0.00  0.00    -0.388 OA
ATOM      9  H   UNL     1      10.729  35.916  19.361  0.00  0.00    +0.210 HD
ENDBRANCH   5   8
ENDBRANCH   1   2
ENDBRANCH  14   1
TORSDOF 11
ENDMDL
MODEL 7
REMARK VINA RESULT:    -7.556      3.937      7.993
REMARK INTER + INTRA:         -12.129
REMARK INTER:                 -10.935
REMARK INTRA:                  -1.194
REMARK UNBOUND:                -1.040
REMARK  Name = C:\Users\HP\Downloads\Anthraquinone_pdb\AD5.pdb
REMARK  13 active torsions:
REMARK  status: ('A' for Active; 'I' for Inactive)
REMARK    1  A    between atoms: O_1  and  C_13
REMARK    2  A    between atoms: O_1  and  C_19
REMARK    3  A    between atoms: O_3  and  C_14
REMARK    4  A    between atoms: O_4  and  C_22
REMARK    5  A    between atoms: O_5  and  C_24
REMARK    6  A    between atoms: O_6  and  C_26
REMARK    7  A    between atoms: O_8  and  C_30
REMARK    8  A    between atoms: O_11  and  C_35
REMARK    9  A    between atoms: O_11  and  C_39
REMARK   10  A    between atoms: N_12  and  C_21
REMARK   11  A    between atoms: C_14  and  C_25
REMARK   12  A    between atoms: C_23  and  C_29
REMARK   13  A    between atoms: C_25  and  C_30
REMARK                            x       y       z     vdW  Elec       q    Type
REMARK                         _______ _______ _______ _____ _____    ______ ____
ROOT
ATOM     14  C   UNL     1      24.723  60.120  25.217  0.00  0.00    +0.158 C 
ATOM     15  C   UNL     1      23.904  58.874  25.454  0.00  0.00    +0.030 A 
ATOM     16  C   UNL     1      22.858  58.917  26.391  0.00  0.00    +0.134 A 
ATOM     17  C   UNL     1      22.085  57.781  26.654  0.00  0.00    +0.078 A 
ATOM     18  C   UNL     1      20.987  57.855  27.641  0.00  0.00    +0.202 C 
ATOM     19  C   UNL     1      20.173  56.650  27.900  0.00  0.00    +0.075 A 
ATOM     20  C   UNL     1      19.126  56.709  28.827  0.00  0.00    +0.132 A 
ATOM     21  C   UNL     1      18.352  55.574  29.076  0.00  0.00    +0.046 A 
ATOM     22  C   UNL     1      18.620  54.384  28.404  0.00  0.00    +0.004 A 
ATOM     23  C   UNL     1      19.663  54.321  27.479  0.00  0.00    +0.012 A 
ATOM     26  C   UNL     1      20.441  55.457  27.227  0.00  0.00    +0.037 A 
ATOM     27  C   UNL     1      21.544  55.381  26.246  0.00  0.00    +0.198 C 
ATOM     28  O   UNL     1      21.783  54.333  25.660  0.00  0.00    -0.286 OA
ATOM     29  O   UNL     1      20.755  58.901  28.234  0.00  0.00    -0.286 OA
ATOM     30  C   UNL     1      22.355  56.590  25.985  0.00  0.00    +0.078 A 
ATOM     31  C   UNL     1      23.398  56.535  25.054  0.00  0.00    +0.132 A 
ATOM     36  C   UNL     1      24.185  57.669  24.789  0.00  0.00    +0.007 A 
ATOM     37  C   UNL     1      25.276  57.561  23.747  0.00  0.00    +0.082 C 
ATOM     38  C   UNL     1      26.270  58.726  23.765  0.00  0.00    +0.133 C 
ATOM     46  C   UNL     1      25.545  60.065  23.925  0.00  0.00    +0.079 C 
ENDROOT
BRANCH  20  24
ATOM     24  O   UNL     1      18.808  57.839  29.519  0.00  0.00    -0.494 OA
ATOM     25  C   UNL     1      17.483  57.931  30.036  0.00  0.00    +0.277 C 
ENDBRANCH  20  24
BRANCH  31  32
ATOM     32  O   UNL     1      23.674  55.384  24.368  0.00  0.00    -0.506 OA
ATOM     33  H   UNL     1      23.074  54.670  24.634  0.00  0.00    +0.292 HD
ENDBRANCH  31  32
BRANCH  16  34
ATOM     34  O   UNL     1      22.624  60.101  27.036  0.00  0.00    -0.506 OA
ATOM     35  H   UNL     1      21.705  60.145  27.340  0.00  0.00    +0.292 HD
ENDBRANCH  16  34
BRANCH  38  39
ATOM     39  C   UNL     1      27.069  58.724  22.493  0.00  0.00    +0.190 C 
ATOM     43  O   UNL     1      26.736  58.034  21.530  0.00  0.00    -0.292 OA
BRANCH  39  40
ATOM     40  C   UNL     1      28.297  59.610  22.471  0.00  0.00    +0.233 C 
BRANCH  40  41
ATOM     41  O   UNL     1      28.152  60.639  21.514  0.00  0.00    -0.387 OA
ATOM     42  H   UNL     1      29.044  60.908  21.238  0.00  0.00    +0.210 HD
ENDBRANCH  40  41
ENDBRANCH  39  40
ENDBRANCH  38  39
BRANCH  38  44
ATOM     44  O   UNL     1      27.223  58.563  24.807  0.00  0.00    -0.381 OA
ATOM     45  H   UNL     1      26.899  57.897  25.436  0.00  0.00    +0.211 HD
ENDBRANCH  38  44
BRANCH  14   1
ATOM      1  O   UNL     1      25.583  60.300  26.340  0.00  0.00    -0.343 OA
BRANCH   1   2
ATOM      2  C   UNL     1      25.846  61.681  26.572  0.00  0.00    +0.253 C 
ATOM      3  C   UNL     1      25.257  62.097  27.922  0.00  0.00    +0.082 C 
ATOM      4  C   UNL     1      26.056  61.482  29.076  0.00  0.00    +0.087 C 
ATOM      5  C   UNL     1      27.550  61.801  28.919  0.00  0.00    +0.160 C 
ATOM      6  C   UNL     1      28.028  61.367  27.525  0.00  0.00    +0.148 C 
ATOM      7  C   UNL     1      29.482  61.745  27.267  0.00  0.00    +0.041 C 
ATOM     13  O   UNL     1      27.240  61.990  26.502  0.00  0.00    -0.346 OA
BRANCH   4  10
ATOM     10  N   UNL     1      25.547  61.965  30.357  0.00  0.00    -0.325 NA
ATOM     11  H   UNL     1      24.598  61.621  30.503  0.00  0.00    +0.119 HD
ATOM     12  H   UNL     1      26.106  61.579  31.117  0.00  0.00    +0.119 HD
ENDBRANCH   4  10
BRANCH   5   8
ATOM      8  O   UNL     1      27.773  63.205  29.063  0.00  0.00    -0.388 OA
ATOM      9  H   UNL     1      26.976  63.664  28.748  0.00  0.00    +0.210 HD
ENDBRANCH   5   8
ENDBRANCH   1   2
ENDBRANCH  14   1
TORSDOF 11
ENDMDL
MODEL 8
REMARK VINA RESULT:    -7.522     18.276     19.650
REMARK INTER + INTRA:         -12.079
REMARK INTER:                 -10.860
REMARK INTRA:                  -1.220
REMARK UNBOUND:                -1.040
REMARK  Name = C:\Users\HP\Downloads\Anthraquinone_pdb\AD5.pdb
REMARK  13 active torsions:
REMARK  status: ('A' for Active; 'I' for Inactive)
REMARK    1  A    between atoms: O_1  and  C_13
REMARK    2  A    between atoms: O_1  and  C_19
REMARK    3  A    between atoms: O_3  and  C_14
REMARK    4  A    between atoms: O_4  and  C_22
REMARK    5  A    between atoms: O_5  and  C_24
REMARK    6  A    between atoms: O_6  and  C_26
REMARK    7  A    between atoms: O_8  and  C_30
REMARK    8  A    between atoms: O_11  and  C_35
REMARK    9  A    between atoms: O_11  and  C_39
REMARK   10  A    between atoms: N_12  and  C_21
REMARK   11  A    between atoms: C_14  and  C_25
REMARK   12  A    between atoms: C_23  and  C_29
REMARK   13  A    between atoms: C_25  and  C_30
REMARK                            x       y       z     vdW  Elec       q    Type
REMARK                         _______ _______ _______ _____ _____    ______ ____
ROOT
ATOM     14  C   UNL     1      13.729  40.919  21.443  0.00  0.00    +0.158 C 
ATOM     15  C   UNL     1      14.931  40.950  22.354  0.00  0.00    +0.030 A 
ATOM     16  C   UNL     1      14.928  40.152  23.510  0.00  0.00    +0.134 A 
ATOM     17  C   UNL     1      16.014  40.163  24.392  0.00  0.00    +0.078 A 
ATOM     18  C   UNL     1      15.986  39.309  25.598  0.00  0.00    +0.202 C 
ATOM     19  C   UNL     1      17.145  39.323  26.514  0.00  0.00    +0.075 A 
ATOM     20  C   UNL     1      17.134  38.514  27.656  0.00  0.00    +0.132 A 
ATOM     21  C   UNL     1      18.226  38.521  28.525  0.00  0.00    +0.046 A 
ATOM     22  C   UNL     1      19.327  39.333  28.257  0.00  0.00    +0.004 A 
ATOM     23  C   UNL     1      19.342  40.141  27.120  0.00  0.00    +0.012 A 
ATOM     26  C   UNL     1      18.248  40.136  26.246  0.00  0.00    +0.037 A 
ATOM     27  C   UNL     1      18.272  40.995  25.044  0.00  0.00    +0.198 C 
ATOM     28  O   UNL     1      19.237  41.712  24.812  0.00  0.00    -0.286 OA
ATOM     29  O   UNL     1      15.016  38.600  25.835  0.00  0.00    -0.286 OA
ATOM     30  C   UNL     1      17.113  40.976  24.126  0.00  0.00    +0.078 A 
ATOM     31  C   UNL     1      17.124  41.778  22.981  0.00  0.00    +0.132 A 
ATOM     36  C   UNL     1      16.034  41.781  22.093  0.00  0.00    +0.007 A 
ATOM     37  C   UNL     1      16.116  42.642  20.853  0.00  0.00    +0.082 C 
ATOM     38  C   UNL     1      14.777  42.826  20.134  0.00  0.00    +0.133 C 
ATOM     46  C   UNL     1      14.009  41.503  20.054  0.00  0.00    +0.079 C 
ENDROOT
BRANCH  20  24
ATOM     24  O   UNL     1      16.092  37.697  27.979  0.00  0.00    -0.494 OA
ATOM     25  C   UNL     1      15.447  37.934  29.227  0.00  0.00    +0.277 C 
ENDBRANCH  20  24
BRANCH  31  32
ATOM     32  O   UNL     1      18.197  42.574  22.685  0.00  0.00    -0.506 OA
ATOM     33  H   UNL     1      17.920  43.359  22.187  0.00  0.00    +0.292 HD
ENDBRANCH  31  32
BRANCH  16  34
ATOM     34  O   UNL     1      13.830  39.369  23.745  0.00  0.00    -0.506 OA
ATOM     35  H   UNL     1      14.006  38.747  24.466  0.00  0.00    +0.292 HD
ENDBRANCH  16  34
BRANCH  38  39
ATOM     39  C   UNL     1      15.018  43.364  18.753  0.00  0.00    +0.190 C 
ATOM     43  O   UNL     1      16.156  43.468  18.297  0.00  0.00    -0.292 OA
BRANCH  39  40
ATOM     40  C   UNL     1      13.789  43.768  17.967  0.00  0.00    +0.233 C 
BRANCH  40  41
ATOM     41  O   UNL     1      13.469  45.124  18.203  0.00  0.00    -0.387 OA
ATOM     42  H   UNL     1      14.233  45.531  18.645  0.00  0.00    +0.210 HD
ENDBRANCH  40  41
ENDBRANCH  39  40
ENDBRANCH  38  39
BRANCH  38  44
ATOM     44  O   UNL     1      13.983  43.809  20.786  0.00  0.00    -0.381 OA
ATOM     45  H   UNL     1      14.098  44.663  20.337  0.00  0.00    +0.211 HD
ENDBRANCH  38  44
BRANCH  14   1
ATOM      1  O   UNL     1      12.678  41.643  22.078  0.00  0.00    -0.343 OA
BRANCH   1   2
ATOM      2  C   UNL     1      11.450  40.922  22.029  0.00  0.00    +0.253 C 
ATOM      3  C   UNL     1      10.897  40.752  23.445  0.00  0.00    +0.082 C 
ATOM      4  C   UNL     1      10.391  42.090  23.995  0.00  0.00    +0.087 C 
ATOM      5  C   UNL     1       9.403  42.731  23.009  0.00  0.00    +0.160 C 
ATOM      6  C   UNL     1      10.050  42.830  21.619  0.00  0.00    +0.148 C 
ATOM      7  C   UNL     1       9.086  43.369  20.568  0.00  0.00    +0.041 C 
ATOM     13  O   UNL     1      10.488  41.541  21.171  0.00  0.00    -0.346 OA
BRANCH   4  10
ATOM     10  N   UNL     1       9.775  41.897  25.306  0.00  0.00    -0.325 NA
ATOM     11  H   UNL     1       9.448  40.935  25.395  0.00  0.00    +0.119 HD
ATOM     12  H   UNL     1      10.474  42.025  26.036  0.00  0.00    +0.119 HD
ENDBRANCH   4  10
BRANCH   5   8
ATOM      8  O   UNL     1       8.220  41.937  22.908  0.00  0.00    -0.388 OA
ATOM      9  H   UNL     1       7.527  42.489  22.510  0.00  0.00    +0.210 HD
ENDBRANCH   5   8
ENDBRANCH   1   2
ENDBRANCH  14   1
TORSDOF 11
ENDMDL
MODEL 9
REMARK VINA RESULT:    -7.422     23.176     25.908
REMARK INTER + INTRA:         -11.933
REMARK INTER:                 -10.591
REMARK INTRA:                  -1.342
REMARK UNBOUND:                -1.040
REMARK  Name = C:\Users\HP\Downloads\Anthraquinone_pdb\AD5.pdb
REMARK  13 active torsions:
REMARK  status: ('A' for Active; 'I' for Inactive)
REMARK    1  A    between atoms: O_1  and  C_13
REMARK    2  A    between atoms: O_1  and  C_19
REMARK    3  A    between atoms: O_3  and  C_14
REMARK    4  A    between atoms: O_4  and  C_22
REMARK    5  A    between atoms: O_5  and  C_24
REMARK    6  A    between atoms: O_6  and  C_26
REMARK    7  A    between atoms: O_8  and  C_30
REMARK    8  A    between atoms: O_11  and  C_35
REMARK    9  A    between atoms: O_11  and  C_39
REMARK   10  A    between atoms: N_12  and  C_21
REMARK   11  A    between atoms: C_14  and  C_25
REMARK   12  A    between atoms: C_23  and  C_29
REMARK   13  A    between atoms: C_25  and  C_30
REMARK                            x       y       z     vdW  Elec       q    Type
REMARK                         _______ _______ _______ _____ _____    ______ ____
ROOT
ATOM     14  C   UNL     1      20.803  50.191   5.741  0.00  0.00    +0.158 C 
ATOM     15  C   UNL     1      21.581  48.934   6.042  0.00  0.00    +0.030 A 
ATOM     16  C   UNL     1      22.678  49.008   6.916  0.00  0.00    +0.134 A 
ATOM     17  C   UNL     1      23.439  47.871   7.210  0.00  0.00    +0.078 A 
ATOM     18  C   UNL     1      24.585  47.976   8.137  0.00  0.00    +0.202 C 
ATOM     19  C   UNL     1      25.372  46.764   8.446  0.00  0.00    +0.075 A 
ATOM     20  C   UNL     1      26.455  46.849   9.328  0.00  0.00    +0.132 A 
ATOM     21  C   UNL     1      27.203  45.708   9.625  0.00  0.00    +0.046 A 
ATOM     22  C   UNL     1      26.872  44.486   9.045  0.00  0.00    +0.004 A 
ATOM     23  C   UNL     1      25.793  44.397   8.164  0.00  0.00    +0.012 A 
ATOM     26  C   UNL     1      25.041  45.539   7.864  0.00  0.00    +0.037 A 
ATOM     27  C   UNL     1      23.900  45.437   6.931  0.00  0.00    +0.198 C 
ATOM     28  O   UNL     1      23.613  44.363   6.416  0.00  0.00    -0.286 OA
ATOM     29  O   UNL     1      24.878  49.052   8.644  0.00  0.00    -0.286 OA
ATOM     30  C   UNL     1      23.111  46.649   6.627  0.00  0.00    +0.078 A 
ATOM     31  C   UNL     1      22.024  46.566   5.751  0.00  0.00    +0.132 A 
ATOM     36  C   UNL     1      21.259  47.704   5.443  0.00  0.00    +0.007 A 
ATOM     37  C   UNL     1      20.074  47.548   4.517  0.00  0.00    +0.082 C 
ATOM     38  C   UNL     1      19.514  48.874   3.995  0.00  0.00    +0.133 C 
ATOM     46  C   UNL     1      19.432  49.916   5.113  0.00  0.00    +0.079 C 
ENDROOT
BRANCH  20  24
ATOM     24  O   UNL     1      26.834  48.011   9.931  0.00  0.00    -0.494 OA
ATOM     25  C   UNL     1      28.229  48.200  10.154  0.00  0.00    +0.277 C 
ENDBRANCH  20  24
BRANCH  31  32
ATOM     32  O   UNL     1      21.667  45.376   5.178  0.00  0.00    -0.506 OA
ATOM     33  H   UNL     1      21.745  45.420   4.212  0.00  0.00    +0.292 HD
ENDBRANCH  31  32
BRANCH  16  34
ATOM     34  O   UNL     1      22.979  50.225   7.467  0.00  0.00    -0.506 OA
ATOM     35  H   UNL     1      22.470  50.927   7.034  0.00  0.00    +0.292 HD
ENDBRANCH  16  34
BRANCH  38  39
ATOM     39  C   UNL     1      18.152  48.646   3.404  0.00  0.00    +0.190 C 
ATOM     43  O   UNL     1      17.194  49.355   3.711  0.00  0.00    -0.292 OA
BRANCH  39  40
ATOM     40  C   UNL     1      18.031  47.501   2.420  0.00  0.00    +0.233 C 
BRANCH  40  41
ATOM     41  O   UNL     1      18.654  47.829   1.195  0.00  0.00    -0.387 OA
ATOM     42  H   UNL     1      19.484  47.325   1.146  0.00  0.00    +0.210 HD
ENDBRANCH  40  41
ENDBRANCH  39  40
ENDBRANCH  38  39
BRANCH  38  44
ATOM     44  O   UNL     1      20.307  49.372   2.925  0.00  0.00    -0.381 OA
ATOM     45  H   UNL     1      20.038  50.284   2.724  0.00  0.00    +0.211 HD
ENDBRANCH  38  44
BRANCH  14   1
ATOM      1  O   UNL     1      21.590  50.997   4.868  0.00  0.00    -0.343 OA
BRANCH   1   2
ATOM      2  C   UNL     1      21.386  52.384   5.121  0.00  0.00    +0.253 C 
ATOM      3  C   UNL     1      22.694  53.146   4.896  0.00  0.00    +0.082 C 
ATOM      4  C   UNL     1      23.040  53.202   3.404  0.00  0.00    +0.087 C 
ATOM      5  C   UNL     1      21.850  53.748   2.602  0.00  0.00    +0.160 C 
ATOM      6  C   UNL     1      20.591  52.930   2.922  0.00  0.00    +0.148 C 
ATOM      7  C   UNL     1      19.349  53.483   2.230  0.00  0.00    +0.041 C 
ATOM     13  O   UNL     1      20.328  52.933   4.331  0.00  0.00    -0.346 OA
BRANCH   4  10
ATOM     10  N   UNL     1      24.235  54.015   3.193  0.00  0.00    -0.325 NA
ATOM     11  H   UNL     1      25.045  53.409   3.058  0.00  0.00    +0.119 HD
ATOM     12  H   UNL     1      24.139  54.552   2.332  0.00  0.00    +0.119 HD
ENDBRANCH   4  10
BRANCH   5   8
ATOM      8  O   UNL     1      21.609  55.114   2.945  0.00  0.00    -0.388 OA
ATOM      9  H   UNL     1      20.734  55.356   2.597  0.00  0.00    +0.210 HD
ENDBRANCH   5   8
ENDBRANCH   1   2
ENDBRANCH  14   1
TORSDOF 11
ENDMDL
