MODEL 1
REMARK VINA RESULT:    -7.823      0.000      0.000
REMARK INTER + INTRA:         -16.929
REMARK INTER:                 -14.225
REMARK INTRA:                  -2.704
REMARK UNBOUND:                -2.704
REMARK  Name = C:\Users\HP\Downloads\Anthraquinone_pdb\AD6.pdb
REMARK  19 active torsions:
REMARK  status: ('A' for Active; 'I' for Inactive)
REMARK    1  A    between atoms: C_2  and  O_3
REMARK    2  A    between atoms: O_3  and  C_4
REMARK    3  A    between atoms: C_7  and  N_9
REMARK    4  A    between atoms: C_10  and  C_12
REMARK    5  A    between atoms: C_16  and  O_18
REMARK    6  A    between atoms: C_19  and  C_21
REMARK    7  A    between atoms: C_24  and  O_25
REMARK    8  A    between atoms: C_24  and  C_26
REMARK    9  A    between atoms: C_26  and  C_28
REMARK   10  A    between atoms: C_28  and  O_29
REMARK   11  A    between atoms: O_29  and  C_30
REMARK   12  A    between atoms: C_30  and  C_32
REMARK   13  A    between atoms: C_32  and  C_33
REMARK   14  A    between atoms: C_33  and  C_34
REMARK   15  A    between atoms: C_34  and  C_35
REMARK   16  A    between atoms: C_38  and  O_39
REMARK   17  A    between atoms: C_45  and  O_46
REMARK   18  A    between atoms: O_46  and  C_47
REMARK   19  A    between atoms: C_54  and  O_55
REMARK                            x       y       z     vdW  Elec       q    Type
REMARK                         _______ _______ _______ _____ _____    ______ ____
ROOT
ATOM      1  C   UNL     1      21.903  55.436  27.339  0.00  0.00    +0.158 C 
ATOM      2  C   UNL     1      22.724  56.514  28.034  0.00  0.00    +0.030 A 
ATOM      3  C   UNL     1      22.819  56.496  29.443  0.00  0.00    +0.134 A 
ATOM      6  C   UNL     1      23.268  57.613  30.176  0.00  0.00    +0.078 A 
ATOM      7  C   UNL     1      23.249  57.566  31.658  0.00  0.00    +0.202 C 
ATOM      8  C   UNL     1      23.460  58.800  32.451  0.00  0.00    +0.075 A 
ATOM      9  C   UNL     1      23.795  59.973  31.771  0.00  0.00    +0.037 A 
ATOM     10  C   UNL     1      23.988  59.975  30.288  0.00  0.00    +0.198 C 
ATOM     11  O   UNL     1      24.381  60.979  29.704  0.00  0.00    -0.286 OA
ATOM     12  C   UNL     1      23.932  61.173  32.491  0.00  0.00    +0.012 A 
ATOM     13  C   UNL     1      23.723  61.198  33.873  0.00  0.00    +0.004 A 
ATOM     14  C   UNL     1      23.419  60.027  34.558  0.00  0.00    +0.046 A 
ATOM     15  C   UNL     1      23.309  58.816  33.864  0.00  0.00    +0.132 A 
ATOM     18  O   UNL     1      23.018  56.489  32.189  0.00  0.00    -0.286 OA
ATOM     19  C   UNL     1      23.652  58.763  29.495  0.00  0.00    +0.078 A 
ATOM     20  C   UNL     1      23.642  58.758  28.075  0.00  0.00    +0.132 A 
ATOM     23  C   UNL     1      23.168  57.647  27.327  0.00  0.00    +0.007 A 
ATOM     24  C   UNL     1      23.123  57.663  25.797  0.00  0.00    +0.082 C 
ATOM     25  C   UNL     1      22.122  56.667  25.130  0.00  0.00    +0.134 C 
ATOM     38  C   UNL     1      22.259  55.318  25.830  0.00  0.00    +0.079 C 
ENDROOT
BRANCH   3   4
ATOM      4  O   UNL     1      22.390  55.347  30.069  0.00  0.00    -0.506 OA
ATOM      5  H   UNL     1      22.605  54.579  29.488  0.00  0.00    +0.292 HD
ENDBRANCH   3   4
BRANCH  15  16
ATOM     16  O   UNL     1      22.984  57.653  34.510  0.00  0.00    -0.494 OA
ATOM     17  C   UNL     1      23.185  57.599  35.923  0.00  0.00    +0.277 C 
ENDBRANCH  15  16
BRANCH  20  21
ATOM     21  O   UNL     1      24.048  59.856  27.356  0.00  0.00    -0.506 OA
ATOM     22  H   UNL     1      24.567  59.552  26.578  0.00  0.00    +0.292 HD
ENDBRANCH  20  21
BRANCH  25  26
ATOM     26  O   UNL     1      20.756  57.071  25.293  0.00  0.00    -0.381 OA
ATOM     27  H   UNL     1      20.455  56.750  26.165  0.00  0.00    +0.211 HD
ENDBRANCH  25  26
BRANCH  25  28
ATOM     28  C   UNL     1      22.229  56.786  23.589  0.00  0.00    +0.202 C 
ATOM     37  O   UNL     1      23.271  56.400  23.032  0.00  0.00    -0.291 OA
BRANCH  28  29
ATOM     29  C   UNL     1      21.250  57.633  22.770  0.00  0.00    +0.309 C 
BRANCH  29  30
ATOM     30  O   UNL     1      21.000  58.968  23.170  0.00  0.00    -0.457 OA
BRANCH  30  31
ATOM     31  C   UNL     1      21.859  59.882  22.642  0.00  0.00    +0.307 C 
ATOM     36  O   UNL     1      22.022  60.083  21.449  0.00  0.00    -0.251 OA
BRANCH  31  32
ATOM     32  C   UNL     1      22.546  60.635  23.755  0.00  0.00    +0.120 C 
BRANCH  32  33
ATOM     33  C   UNL     1      23.971  61.034  23.377  0.00  0.00    +0.011 C 
BRANCH  33  34
ATOM     34  C   UNL     1      24.972  59.906  23.626  0.00  0.00    -0.003 C 
ATOM     35  C   UNL     1      26.409  60.370  23.488  0.00  0.00    +0.004 C 
ENDBRANCH  33  34
ENDBRANCH  32  33
ENDBRANCH  31  32
ENDBRANCH  30  31
ENDBRANCH  29  30
ENDBRANCH  28  29
ENDBRANCH  25  28
BRANCH   1  39
ATOM     39  O   UNL     1      20.575  55.878  27.663  0.00  0.00    -0.343 OA
BRANCH  39  40
ATOM     40  C   UNL     1      19.762  55.106  28.527  0.00  0.00    +0.253 C 
ATOM     41  O   UNL     1      18.813  54.352  27.740  0.00  0.00    -0.346 OA
ATOM     42  C   UNL     1      17.800  55.158  27.117  0.00  0.00    +0.148 C 
ATOM     43  C   UNL     1      16.889  54.304  26.237  0.00  0.00    +0.041 C 
ATOM     44  C   UNL     1      16.972  55.884  28.182  0.00  0.00    +0.163 C 
ATOM     47  C   UNL     1      17.937  56.799  28.950  0.00  0.00    +0.109 C 
ATOM     56  C   UNL     1      19.055  55.965  29.585  0.00  0.00    +0.086 C 
BRANCH  47  48
ATOM     48  N   UNL     1      17.224  57.623  29.927  0.00  0.00    -0.302 N 
ATOM     49  H   UNL     1      16.229  57.471  30.067  0.00  0.00    +0.149 HD
ATOM     50  C   UNL     1      17.782  58.832  30.349  0.00  0.00    +0.318 C 
ATOM     55  O   UNL     1      18.895  59.193  29.959  0.00  0.00    -0.266 OA
BRANCH  50  51
ATOM     51  C   UNL     1      16.920  59.666  31.314  0.00  0.00    +0.469 C 
ATOM     52  F   UNL     1      17.438  60.906  31.531  0.00  0.00    -0.162 F 
ATOM     53  F   UNL     1      16.786  59.077  32.533  0.00  0.00    -0.162 F 
ATOM     54  F   UNL     1      15.656  59.859  30.836  0.00  0.00    -0.162 F 
ENDBRANCH  50  51
ENDBRANCH  47  48
BRANCH  44  45
ATOM     45  O   UNL     1      16.362  54.953  29.093  0.00  0.00    -0.387 OA
ATOM     46  H   UNL     1      15.586  54.575  28.645  0.00  0.00    +0.210 HD
ENDBRANCH  44  45
ENDBRANCH  39  40
ENDBRANCH   1  39
TORSDOF 16
ENDMDL
MODEL 2
REMARK VINA RESULT:    -7.530      4.566      7.610
REMARK INTER + INTRA:         -16.396
REMARK INTER:                 -13.969
REMARK INTRA:                  -2.427
REMARK UNBOUND:                -2.704
REMARK  Name = C:\Users\HP\Downloads\Anthraquinone_pdb\AD6.pdb
REMARK  19 active torsions:
REMARK  status: ('A' for Active; 'I' for Inactive)
REMARK    1  A    between atoms: C_2  and  O_3
REMARK    2  A    between atoms: O_3  and  C_4
REMARK    3  A    between atoms: C_7  and  N_9
REMARK    4  A    between atoms: C_10  and  C_12
REMARK    5  A    between atoms: C_16  and  O_18
REMARK    6  A    between atoms: C_19  and  C_21
REMARK    7  A    between atoms: C_24  and  O_25
REMARK    8  A    between atoms: C_24  and  C_26
REMARK    9  A    between atoms: C_26  and  C_28
REMARK   10  A    between atoms: C_28  and  O_29
REMARK   11  A    between atoms: O_29  and  C_30
REMARK   12  A    between atoms: C_30  and  C_32
REMARK   13  A    between atoms: C_32  and  C_33
REMARK   14  A    between atoms: C_33  and  C_34
REMARK   15  A    between atoms: C_34  and  C_35
REMARK   16  A    between atoms: C_38  and  O_39
REMARK   17  A    between atoms: C_45  and  O_46
REMARK   18  A    between atoms: O_46  and  C_47
REMARK   19  A    between atoms: C_54  and  O_55
REMARK                            x       y       z     vdW  Elec       q    Type
REMARK                         _______ _______ _______ _____ _____    ______ ____
ROOT
ATOM      1  C   UNL     1      22.156  59.533  28.738  0.00  0.00    +0.158 C 
ATOM      2  C   UNL     1      22.911  58.622  29.696  0.00  0.00    +0.030 A 
ATOM      3  C   UNL     1      24.314  58.746  29.792  0.00  0.00    +0.134 A 
ATOM      6  C   UNL     1      25.114  57.749  30.387  0.00  0.00    +0.078 A 
ATOM      7  C   UNL     1      26.590  57.893  30.366  0.00  0.00    +0.202 C 
ATOM      8  C   UNL     1      27.460  56.752  30.741  0.00  0.00    +0.075 A 
ATOM      9  C   UNL     1      26.855  55.590  31.226  0.00  0.00    +0.037 A 
ATOM     10  C   UNL     1      25.372  55.515  31.412  0.00  0.00    +0.198 C 
ATOM     11  O   UNL     1      24.851  54.535  31.932  0.00  0.00    -0.286 OA
ATOM     12  C   UNL     1      27.650  54.470  31.522  0.00  0.00    +0.012 A 
ATOM     13  C   UNL     1      29.033  54.510  31.322  0.00  0.00    +0.004 A 
ATOM     14  C   UNL     1      29.644  55.674  30.869  0.00  0.00    +0.046 A 
ATOM     15  C   UNL     1      28.872  56.811  30.598  0.00  0.00    +0.132 A 
ATOM     18  O   UNL     1      27.052  58.963  29.997  0.00  0.00    -0.286 OA
ATOM     19  C   UNL     1      24.506  56.616  30.917  0.00  0.00    +0.078 A 
ATOM     20  C   UNL     1      23.088  56.525  30.902  0.00  0.00    +0.132 A 
ATOM     23  C   UNL     1      22.275  57.512  30.283  0.00  0.00    +0.007 A 
ATOM     24  C   UNL     1      20.750  57.387  30.236  0.00  0.00    +0.082 C 
ATOM     25  C   UNL     1      20.031  58.197  29.110  0.00  0.00    +0.134 C 
ATOM     38  C   UNL     1      20.639  59.595  29.070  0.00  0.00    +0.079 C 
ENDROOT
BRANCH   3   4
ATOM      4  O   UNL     1      24.868  59.868  29.218  0.00  0.00    -0.506 OA
ATOM      5  H   UNL     1      24.591  60.655  29.745  0.00  0.00    +0.292 HD
ENDBRANCH   3   4
BRANCH  15  16
ATOM     16  O   UNL     1      29.445  57.962  30.125  0.00  0.00    -0.494 OA
ATOM     17  C   UNL     1      30.306  58.687  31.005  0.00  0.00    +0.277 C 
ENDBRANCH  15  16
BRANCH  20  21
ATOM     21  O   UNL     1      22.438  55.444  31.447  0.00  0.00    -0.506 OA
ATOM     22  H   UNL     1      23.105  54.762  31.688  0.00  0.00    +0.292 HD
ENDBRANCH  20  21
BRANCH  25  26
ATOM     26  O   UNL     1      20.236  57.629  27.810  0.00  0.00    -0.381 OA
ATOM     27  H   UNL     1      20.182  58.356  27.159  0.00  0.00    +0.211 HD
ENDBRANCH  25  26
BRANCH  25  28
ATOM     28  C   UNL     1      18.500  57.990  29.227  0.00  0.00    +0.202 C 
ATOM     37  O   UNL     1      17.814  58.889  29.743  0.00  0.00    -0.291 OA
BRANCH  28  29
ATOM     29  C   UNL     1      17.848  56.619  29.025  0.00  0.00    +0.309 C 
BRANCH  29  30
ATOM     30  O   UNL     1      17.701  56.119  27.708  0.00  0.00    -0.457 OA
BRANCH  30  31
ATOM     31  C   UNL     1      17.516  54.773  27.637  0.00  0.00    +0.307 C 
ATOM     36  O   UNL     1      16.457  54.223  27.377  0.00  0.00    -0.251 OA
BRANCH  31  32
ATOM     32  C   UNL     1      18.826  54.066  27.887  0.00  0.00    +0.120 C 
BRANCH  32  33
ATOM     33  C   UNL     1      19.836  54.326  26.772  0.00  0.00    +0.011 C 
BRANCH  33  34
ATOM     34  C   UNL     1      21.243  53.859  27.147  0.00  0.00    -0.003 C 
ATOM     35  C   UNL     1      22.187  55.019  27.401  0.00  0.00    +0.004 C 
ENDBRANCH  33  34
ENDBRANCH  32  33
ENDBRANCH  31  32
ENDBRANCH  30  31
ENDBRANCH  29  30
ENDBRANCH  28  29
ENDBRANCH  25  28
BRANCH   1  39
ATOM     39  O   UNL     1      22.525  58.943  27.481  0.00  0.00    -0.343 OA
BRANCH  39  40
ATOM     40  C   UNL     1      22.464  59.710  26.292  0.00  0.00    +0.253 C 
ATOM     41  O   UNL     1      21.635  59.027  25.326  0.00  0.00    -0.346 OA
ATOM     42  C   UNL     1      22.219  57.823  24.803  0.00  0.00    +0.148 C 
ATOM     43  C   UNL     1      21.251  57.115  23.856  0.00  0.00    +0.041 C 
ATOM     44  C   UNL     1      23.528  58.144  24.075  0.00  0.00    +0.163 C 
ATOM     47  C   UNL     1      24.481  58.751  25.115  0.00  0.00    +0.109 C 
ATOM     56  C   UNL     1      23.858  60.012  25.722  0.00  0.00    +0.086 C 
BRANCH  47  48
ATOM     48  N   UNL     1      25.805  58.996  24.543  0.00  0.00    -0.302 N 
ATOM     49  H   UNL     1      26.596  58.456  24.882  0.00  0.00    +0.149 HD
ATOM     50  C   UNL     1      26.054  60.189  23.861  0.00  0.00    +0.318 C 
ATOM     55  O   UNL     1      25.159  61.019  23.679  0.00  0.00    -0.266 OA
BRANCH  50  51
ATOM     51  C   UNL     1      27.498  60.390  23.367  0.00  0.00    +0.469 C 
ATOM     52  F   UNL     1      28.298  60.947  24.318  0.00  0.00    -0.162 F 
ATOM     53  F   UNL     1      27.566  61.197  22.274  0.00  0.00    -0.162 F 
ATOM     54  F   UNL     1      28.088  59.211  23.016  0.00  0.00    -0.162 F 
ENDBRANCH  50  51
ENDBRANCH  47  48
BRANCH  44  45
ATOM     45  O   UNL     1      23.314  59.085  23.008  0.00  0.00    -0.387 OA
ATOM     46  H   UNL     1      24.188  59.341  22.667  0.00  0.00    +0.210 HD
ENDBRANCH  44  45
ENDBRANCH  39  40
ENDBRANCH   1  39
TORSDOF 16
ENDMDL
MODEL 3
REMARK VINA RESULT:    -7.528      4.683      7.872
REMARK INTER + INTRA:         -16.394
REMARK INTER:                 -14.153
REMARK INTRA:                  -2.240
REMARK UNBOUND:                -2.704
REMARK  Name = C:\Users\HP\Downloads\Anthraquinone_pdb\AD6.pdb
REMARK  19 active torsions:
REMARK  status: ('A' for Active; 'I' for Inactive)
REMARK    1  A    between atoms: C_2  and  O_3
REMARK    2  A    between atoms: O_3  and  C_4
REMARK    3  A    between atoms: C_7  and  N_9
REMARK    4  A    between atoms: C_10  and  C_12
REMARK    5  A    between atoms: C_16  and  O_18
REMARK    6  A    between atoms: C_19  and  C_21
REMARK    7  A    between atoms: C_24  and  O_25
REMARK    8  A    between atoms: C_24  and  C_26
REMARK    9  A    between atoms: C_26  and  C_28
REMARK   10  A    between atoms: C_28  and  O_29
REMARK   11  A    between atoms: O_29  and  C_30
REMARK   12  A    between atoms: C_30  and  C_32
REMARK   13  A    between atoms: C_32  and  C_33
REMARK   14  A    between atoms: C_33  and  C_34
REMARK   15  A    between atoms: C_34  and  C_35
REMARK   16  A    between atoms: C_38  and  O_39
REMARK   17  A    between atoms: C_45  and  O_46
REMARK   18  A    between atoms: O_46  and  C_47
REMARK   19  A    between atoms: C_54  and  O_55
REMARK                            x       y       z     vdW  Elec       q    Type
REMARK                         _______ _______ _______ _____ _____    ______ ____
ROOT
ATOM      1  C   UNL     1      22.142  59.479  28.600  0.00  0.00    +0.158 C 
ATOM      2  C   UNL     1      22.928  58.606  29.569  0.00  0.00    +0.030 A 
ATOM      3  C   UNL     1      24.319  58.811  29.697  0.00  0.00    +0.134 A 
ATOM      6  C   UNL     1      25.163  57.858  30.303  0.00  0.00    +0.078 A 
ATOM      7  C   UNL     1      26.628  58.087  30.316  0.00  0.00    +0.202 C 
ATOM      8  C   UNL     1      27.555  56.996  30.703  0.00  0.00    +0.075 A 
ATOM      9  C   UNL     1      27.007  55.798  31.167  0.00  0.00    +0.037 A 
ATOM     10  C   UNL     1      25.528  55.636  31.321  0.00  0.00    +0.198 C 
ATOM     11  O   UNL     1      25.054  54.623  31.823  0.00  0.00    -0.286 OA
ATOM     12  C   UNL     1      27.860  54.724  31.474  0.00  0.00    +0.012 A 
ATOM     13  C   UNL     1      29.242  54.845  31.305  0.00  0.00    +0.004 A 
ATOM     14  C   UNL     1      29.794  56.046  30.872  0.00  0.00    +0.046 A 
ATOM     15  C   UNL     1      28.963  57.138  30.591  0.00  0.00    +0.132 A 
ATOM     18  O   UNL     1      27.034  59.185  29.963  0.00  0.00    -0.286 OA
ATOM     19  C   UNL     1      24.610  56.688  30.813  0.00  0.00    +0.078 A 
ATOM     20  C   UNL     1      23.201  56.515  30.767  0.00  0.00    +0.132 A 
ATOM     23  C   UNL     1      22.345  57.457  30.136  0.00  0.00    +0.007 A 
ATOM     24  C   UNL     1      20.831  57.245  30.055  0.00  0.00    +0.082 C 
ATOM     25  C   UNL     1      20.091  58.020  28.918  0.00  0.00    +0.134 C 
ATOM     38  C   UNL     1      20.617  59.451  28.900  0.00  0.00    +0.079 C 
ENDROOT
BRANCH   3   4
ATOM      4  O   UNL     1      24.819  59.968  29.142  0.00  0.00    -0.506 OA
ATOM      5  H   UNL     1      25.351  59.725  28.347  0.00  0.00    +0.292 HD
ENDBRANCH   3   4
BRANCH  15  16
ATOM     16  O   UNL     1      29.478  58.324  30.137  0.00  0.00    -0.494 OA
ATOM     17  C   UNL     1      30.362  59.039  31.002  0.00  0.00    +0.277 C 
ENDBRANCH  15  16
BRANCH  20  21
ATOM     21  O   UNL     1      22.603  55.394  31.291  0.00  0.00    -0.506 OA
ATOM     22  H   UNL     1      22.350  54.796  30.553  0.00  0.00    +0.292 HD
ENDBRANCH  20  21
BRANCH  25  26
ATOM     26  O   UNL     1      20.356  57.474  27.619  0.00  0.00    -0.381 OA
ATOM     27  H   UNL     1      19.505  57.422  27.142  0.00  0.00    +0.211 HD
ENDBRANCH  25  26
BRANCH  25  28
ATOM     28  C   UNL     1      18.572  57.724  29.001  0.00  0.00    +0.202 C 
ATOM     37  O   UNL     1      18.023  57.148  28.045  0.00  0.00    -0.291 OA
BRANCH  28  29
ATOM     29  C   UNL     1      17.673  58.379  30.054  0.00  0.00    +0.309 C 
BRANCH  29  30
ATOM     30  O   UNL     1      18.268  59.180  31.058  0.00  0.00    -0.457 OA
BRANCH  30  31
ATOM     31  C   UNL     1      17.638  60.367  31.275  0.00  0.00    +0.307 C 
ATOM     36  O   UNL     1      16.427  60.519  31.326  0.00  0.00    -0.251 OA
BRANCH  31  32
ATOM     32  C   UNL     1      18.663  61.455  31.484  0.00  0.00    +0.120 C 
BRANCH  32  33
ATOM     33  C   UNL     1      18.806  62.346  30.252  0.00  0.00    +0.011 C 
BRANCH  33  34
ATOM     34  C   UNL     1      18.169  63.722  30.458  0.00  0.00    -0.003 C 
ATOM     35  C   UNL     1      18.330  64.224  31.880  0.00  0.00    +0.004 C 
ENDBRANCH  33  34
ENDBRANCH  32  33
ENDBRANCH  31  32
ENDBRANCH  30  31
ENDBRANCH  29  30
ENDBRANCH  28  29
ENDBRANCH  25  28
BRANCH   1  39
ATOM     39  O   UNL     1      22.571  58.921  27.348  0.00  0.00    -0.343 OA
BRANCH  39  40
ATOM     40  C   UNL     1      22.146  59.502  26.130  0.00  0.00    +0.253 C 
ATOM     41  O   UNL     1      21.636  58.467  25.261  0.00  0.00    -0.346 OA
ATOM     42  C   UNL     1      22.644  57.575  24.760  0.00  0.00    +0.148 C 
ATOM     43  C   UNL     1      22.018  56.461  23.921  0.00  0.00    +0.041 C 
ATOM     44  C   UNL     1      23.668  58.349  23.925  0.00  0.00    +0.163 C 
ATOM     47  C   UNL     1      24.326  59.373  24.863  0.00  0.00    +0.109 C 
ATOM     56  C   UNL     1      23.262  60.307  25.447  0.00  0.00    +0.086 C 
BRANCH  47  48
ATOM     48  N   UNL     1      25.403  60.097  24.187  0.00  0.00    -0.302 N 
ATOM     49  H   UNL     1      25.194  60.607  23.333  0.00  0.00    +0.149 HD
ATOM     50  C   UNL     1      26.733  59.774  24.464  0.00  0.00    +0.318 C 
ATOM     55  O   UNL     1      27.021  58.928  25.315  0.00  0.00    -0.266 OA
BRANCH  50  51
ATOM     51  C   UNL     1      27.792  60.533  23.644  0.00  0.00    +0.469 C 
ATOM     52  F   UNL     1      27.234  61.387  22.742  0.00  0.00    -0.162 F 
ATOM     53  F   UNL     1      28.605  59.697  22.945  0.00  0.00    -0.162 F 
ATOM     54  F   UNL     1      28.604  61.293  24.435  0.00  0.00    -0.162 F 
ENDBRANCH  50  51
ENDBRANCH  47  48
BRANCH  44  45
ATOM     45  O   UNL     1      23.037  59.035  22.829  0.00  0.00    -0.387 OA
ATOM     46  H   UNL     1      23.740  59.451  22.303  0.00  0.00    +0.210 HD
ENDBRANCH  44  45
ENDBRANCH  39  40
ENDBRANCH   1  39
TORSDOF 16
ENDMDL
MODEL 4
REMARK VINA RESULT:    -7.312      2.513      7.965
REMARK INTER + INTRA:         -16.001
REMARK INTER:                 -12.820
REMARK INTRA:                  -3.182
REMARK UNBOUND:                -2.704
REMARK  Name = C:\Users\HP\Downloads\Anthraquinone_pdb\AD6.pdb
REMARK  19 active torsions:
REMARK  status: ('A' for Active; 'I' for Inactive)
REMARK    1  A    between atoms: C_2  and  O_3
REMARK    2  A    between atoms: O_3  and  C_4
REMARK    3  A    between atoms: C_7  and  N_9
REMARK    4  A    between atoms: C_10  and  C_12
REMARK    5  A    between atoms: C_16  and  O_18
REMARK    6  A    between atoms: C_19  and  C_21
REMARK    7  A    between atoms: C_24  and  O_25
REMARK    8  A    between atoms: C_24  and  C_26
REMARK    9  A    between atoms: C_26  and  C_28
REMARK   10  A    between atoms: C_28  and  O_29
REMARK   11  A    between atoms: O_29  and  C_30
REMARK   12  A    between atoms: C_30  and  C_32
REMARK   13  A    between atoms: C_32  and  C_33
REMARK   14  A    between atoms: C_33  and  C_34
REMARK   15  A    between atoms: C_34  and  C_35
REMARK   16  A    between atoms: C_38  and  O_39
REMARK   17  A    between atoms: C_45  and  O_46
REMARK   18  A    between atoms: O_46  and  C_47
REMARK   19  A    between atoms: C_54  and  O_55
REMARK                            x       y       z     vdW  Elec       q    Type
REMARK                         _______ _______ _______ _____ _____    ______ ____
ROOT
ATOM      1  C   UNL     1      21.430  61.070  31.339  0.00  0.00    +0.158 C 
ATOM      2  C   UNL     1      22.453  60.615  30.307  0.00  0.00    +0.030 A 
ATOM      3  C   UNL     1      22.281  61.002  28.960  0.00  0.00    +0.134 A 
ATOM      6  C   UNL     1      22.973  60.371  27.906  0.00  0.00    +0.078 A 
ATOM      7  C   UNL     1      22.673  60.755  26.506  0.00  0.00    +0.202 C 
ATOM      8  C   UNL     1      23.182  59.938  25.378  0.00  0.00    +0.075 A 
ATOM      9  C   UNL     1      24.044  58.877  25.667  0.00  0.00    +0.037 A 
ATOM     10  C   UNL     1      24.485  58.604  27.070  0.00  0.00    +0.198 C 
ATOM     11  O   UNL     1      25.321  57.740  27.311  0.00  0.00    -0.286 OA
ATOM     12  C   UNL     1      24.485  58.044  24.625  0.00  0.00    +0.012 A 
ATOM     13  C   UNL     1      24.057  58.263  23.312  0.00  0.00    +0.004 A 
ATOM     14  C   UNL     1      23.223  59.335  23.016  0.00  0.00    +0.046 A 
ATOM     15  C   UNL     1      22.797  60.196  24.035  0.00  0.00    +0.132 A 
ATOM     18  O   UNL     1      21.968  61.738  26.324  0.00  0.00    -0.286 OA
ATOM     19  C   UNL     1      23.872  59.351  28.198  0.00  0.00    +0.078 A 
ATOM     20  C   UNL     1      24.115  59.016  29.558  0.00  0.00    +0.132 A 
ATOM     23  C   UNL     1      23.404  59.628  30.624  0.00  0.00    +0.007 A 
ATOM     24  C   UNL     1      23.644  59.235  32.085  0.00  0.00    +0.082 C 
ATOM     25  C   UNL     1      22.481  59.551  33.079  0.00  0.00    +0.134 C 
ATOM     38  C   UNL     1      21.980  60.962  32.788  0.00  0.00    +0.079 C 
ENDROOT
BRANCH   3   4
ATOM      4  O   UNL     1      21.352  61.991  28.723  0.00  0.00    -0.506 OA
ATOM      5  H   UNL     1      21.827  62.852  28.654  0.00  0.00    +0.292 HD
ENDBRANCH   3   4
BRANCH  15  16
ATOM     16  O   UNL     1      21.954  61.244  23.775  0.00  0.00    -0.494 OA
ATOM     17  C   UNL     1      21.654  61.532  22.409  0.00  0.00    +0.277 C 
ENDBRANCH  15  16
BRANCH  20  21
ATOM     21  O   UNL     1      25.021  58.041  29.900  0.00  0.00    -0.506 OA
ATOM     22  H   UNL     1      24.898  57.271  29.301  0.00  0.00    +0.292 HD
ENDBRANCH  20  21
BRANCH  25  26
ATOM     26  O   UNL     1      21.357  58.678  32.904  0.00  0.00    -0.381 OA
ATOM     27  H   UNL     1      20.555  59.176  33.157  0.00  0.00    +0.211 HD
ENDBRANCH  25  26
BRANCH  25  28
ATOM     28  C   UNL     1      22.899  59.125  34.509  0.00  0.00    +0.202 C 
ATOM     37  O   UNL     1      23.798  59.764  35.083  0.00  0.00    -0.291 OA
BRANCH  28  29
ATOM     29  C   UNL     1      22.478  57.782  35.112  0.00  0.00    +0.309 C 
BRANCH  29  30
ATOM     30  O   UNL     1      22.404  56.646  34.269  0.00  0.00    -0.457 OA
BRANCH  30  31
ATOM     31  C   UNL     1      23.607  56.079  33.985  0.00  0.00    +0.307 C 
ATOM     36  O   UNL     1      24.561  56.040  34.747  0.00  0.00    -0.251 OA
BRANCH  31  32
ATOM     32  C   UNL     1      23.570  55.470  32.605  0.00  0.00    +0.120 C 
BRANCH  32  33
ATOM     33  C   UNL     1      22.360  54.556  32.418  0.00  0.00    +0.011 C 
BRANCH  33  34
ATOM     34  C   UNL     1      21.455  55.024  31.278  0.00  0.00    -0.003 C 
ATOM     35  C   UNL     1      22.038  56.203  30.524  0.00  0.00    +0.004 C 
ENDBRANCH  33  34
ENDBRANCH  32  33
ENDBRANCH  31  32
ENDBRANCH  30  31
ENDBRANCH  29  30
ENDBRANCH  28  29
ENDBRANCH  25  28
BRANCH   1  39
ATOM     39  O   UNL     1      20.326  60.217  30.995  0.00  0.00    -0.343 OA
BRANCH  39  40
ATOM     40  C   UNL     1      19.115  60.780  30.525  0.00  0.00    +0.253 C 
ATOM     41  O   UNL     1      18.300  61.169  31.653  0.00  0.00    -0.346 OA
ATOM     42  C   UNL     1      17.773  60.062  32.402  0.00  0.00    +0.148 C 
ATOM     43  C   UNL     1      16.996  60.551  33.623  0.00  0.00    +0.041 C 
ATOM     44  C   UNL     1      16.868  59.204  31.512  0.00  0.00    +0.163 C 
ATOM     47  C   UNL     1      17.744  58.665  30.372  0.00  0.00    +0.109 C 
ATOM     56  C   UNL     1      18.356  59.829  29.587  0.00  0.00    +0.086 C 
BRANCH  47  48
ATOM     48  N   UNL     1      16.997  57.741  29.519  0.00  0.00    -0.302 N 
ATOM     49  H   UNL     1      15.982  57.730  29.574  0.00  0.00    +0.149 HD
ATOM     50  C   UNL     1      17.647  56.641  28.955  0.00  0.00    +0.318 C 
ATOM     55  O   UNL     1      18.858  56.464  29.114  0.00  0.00    -0.266 OA
BRANCH  50  51
ATOM     51  C   UNL     1      16.759  55.683  28.141  0.00  0.00    +0.469 C 
ATOM     52  F   UNL     1      15.435  55.979  28.256  0.00  0.00    -0.162 F 
ATOM     53  F   UNL     1      16.906  54.386  28.524  0.00  0.00    -0.162 F 
ATOM     54  F   UNL     1      17.045  55.728  26.807  0.00  0.00    -0.162 F 
ENDBRANCH  50  51
ENDBRANCH  47  48
BRANCH  44  45
ATOM     45  O   UNL     1      15.787  59.981  30.965  0.00  0.00    -0.387 OA
ATOM     46  H   UNL     1      15.649  59.681  30.050  0.00  0.00    +0.210 HD
ENDBRANCH  44  45
ENDBRANCH  39  40
ENDBRANCH   1  39
TORSDOF 16
ENDMDL
MODEL 5
REMARK VINA RESULT:    -7.231      5.051     10.050
REMARK INTER + INTRA:         -15.853
REMARK INTER:                 -13.247
REMARK INTRA:                  -2.606
REMARK UNBOUND:                -2.704
REMARK  Name = C:\Users\HP\Downloads\Anthraquinone_pdb\AD6.pdb
REMARK  19 active torsions:
REMARK  status: ('A' for Active; 'I' for Inactive)
REMARK    1  A    between atoms: C_2  and  O_3
REMARK    2  A    between atoms: O_3  and  C_4
REMARK    3  A    between atoms: C_7  and  N_9
REMARK    4  A    between atoms: C_10  and  C_12
REMARK    5  A    between atoms: C_16  and  O_18
REMARK    6  A    between atoms: C_19  and  C_21
REMARK    7  A    between atoms: C_24  and  O_25
REMARK    8  A    between atoms: C_24  and  C_26
REMARK    9  A    between atoms: C_26  and  C_28
REMARK   10  A    between atoms: C_28  and  O_29
REMARK   11  A    between atoms: O_29  and  C_30
REMARK   12  A    between atoms: C_30  and  C_32
REMARK   13  A    between atoms: C_32  and  C_33
REMARK   14  A    between atoms: C_33  and  C_34
REMARK   15  A    between atoms: C_34  and  C_35
REMARK   16  A    between atoms: C_38  and  O_39
REMARK   17  A    between atoms: C_45  and  O_46
REMARK   18  A    between atoms: O_46  and  C_47
REMARK   19  A    between atoms: C_54  and  O_55
REMARK                            x       y       z     vdW  Elec       q    Type
REMARK                         _______ _______ _______ _____ _____    ______ ____
ROOT
ATOM      1  C   UNL     1      17.991  60.121  32.769  0.00  0.00    +0.158 C 
ATOM      2  C   UNL     1      18.368  60.686  31.406  0.00  0.00    +0.030 A 
ATOM      3  C   UNL     1      19.259  59.957  30.588  0.00  0.00    +0.134 A 
ATOM      6  C   UNL     1      19.909  60.542  29.483  0.00  0.00    +0.078 A 
ATOM      7  C   UNL     1      20.910  59.753  28.726  0.00  0.00    +0.202 C 
ATOM      8  C   UNL     1      21.794  60.413  27.736  0.00  0.00    +0.075 A 
ATOM      9  C   UNL     1      21.576  61.764  27.452  0.00  0.00    +0.037 A 
ATOM     10  C   UNL     1      20.448  62.511  28.090  0.00  0.00    +0.198 C 
ATOM     11  O   UNL     1      20.194  63.666  27.765  0.00  0.00    -0.286 OA
ATOM     12  C   UNL     1      22.442  62.432  26.571  0.00  0.00    +0.012 A 
ATOM     13  C   UNL     1      23.522  61.759  25.992  0.00  0.00    +0.004 A 
ATOM     14  C   UNL     1      23.725  60.408  26.247  0.00  0.00    +0.046 A 
ATOM     15  C   UNL     1      22.854  59.716  27.098  0.00  0.00    +0.132 A 
ATOM     18  O   UNL     1      20.999  58.559  28.976  0.00  0.00    -0.286 OA
ATOM     19  C   UNL     1      19.651  61.872  29.169  0.00  0.00    +0.078 A 
ATOM     20  C   UNL     1      18.689  62.586  29.934  0.00  0.00    +0.132 A 
ATOM     23  C   UNL     1      18.048  62.013  31.065  0.00  0.00    +0.007 A 
ATOM     24  C   UNL     1      17.042  62.802  31.908  0.00  0.00    +0.082 C 
ATOM     25  C   UNL     1      16.829  62.295  33.370  0.00  0.00    +0.134 C 
ATOM     38  C   UNL     1      16.698  60.776  33.331  0.00  0.00    +0.079 C 
ENDROOT
BRANCH   3   4
ATOM      4  O   UNL     1      19.508  58.656  30.966  0.00  0.00    -0.506 OA
ATOM      5  H   UNL     1      19.074  58.499  31.838  0.00  0.00    +0.292 HD
ENDBRANCH   3   4
BRANCH  15  16
ATOM     16  O   UNL     1      23.047  58.390  27.388  0.00  0.00    -0.494 OA
ATOM     17  C   UNL     1      24.025  57.680  26.628  0.00  0.00    +0.277 C 
ENDBRANCH  15  16
BRANCH  20  21
ATOM     21  O   UNL     1      18.372  63.890  29.640  0.00  0.00    -0.506 OA
ATOM     22  H   UNL     1      17.614  63.898  29.013  0.00  0.00    +0.292 HD
ENDBRANCH  20  21
BRANCH  25  26
ATOM     26  O   UNL     1      17.947  62.585  34.219  0.00  0.00    -0.381 OA
ATOM     27  H   UNL     1      18.607  63.065  33.684  0.00  0.00    +0.211 HD
ENDBRANCH  25  26
BRANCH  25  28
ATOM     28  C   UNL     1      15.760  63.175  34.067  0.00  0.00    +0.202 C 
ATOM     37  O   UNL     1      14.561  62.881  33.926  0.00  0.00    -0.291 OA
BRANCH  28  29
ATOM     29  C   UNL     1      16.096  64.550  34.651  0.00  0.00    +0.309 C 
BRANCH  29  30
ATOM     30  O   UNL     1      16.547  64.633  35.992  0.00  0.00    -0.457 OA
BRANCH  30  31
ATOM     31  C   UNL     1      16.591  65.897  36.492  0.00  0.00    +0.307 C 
ATOM     36  O   UNL     1      17.030  66.202  37.590  0.00  0.00    -0.251 OA
BRANCH  31  32
ATOM     32  C   UNL     1      16.054  66.868  35.468  0.00  0.00    +0.120 C 
BRANCH  32  33
ATOM     33  C   UNL     1      14.834  67.625  35.986  0.00  0.00    +0.011 C 
BRANCH  33  34
ATOM     34  C   UNL     1      14.237  68.552  34.926  0.00  0.00    -0.003 C 
ATOM     35  C   UNL     1      12.778  68.244  34.646  0.00  0.00    +0.004 C 
ENDBRANCH  33  34
ENDBRANCH  32  33
ENDBRANCH  31  32
ENDBRANCH  30  31
ENDBRANCH  29  30
ENDBRANCH  28  29
ENDBRANCH  25  28
BRANCH   1  39
ATOM     39  O   UNL     1      19.210  60.361  33.490  0.00  0.00    -0.343 OA
BRANCH  39  40
ATOM     40  C   UNL     1      19.417  59.758  34.754  0.00  0.00    +0.253 C 
ATOM     41  O   UNL     1      20.110  60.687  35.617  0.00  0.00    -0.346 OA
ATOM     42  C   UNL     1      21.476  60.925  35.241  0.00  0.00    +0.148 C 
ATOM     43  C   UNL     1      22.115  61.978  36.145  0.00  0.00    +0.041 C 
ATOM     44  C   UNL     1      22.277  59.621  35.305  0.00  0.00    +0.163 C 
ATOM     47  C   UNL     1      21.641  58.655  34.294  0.00  0.00    +0.109 C 
ATOM     56  C   UNL     1      20.169  58.423  34.648  0.00  0.00    +0.086 C 
BRANCH  47  48
ATOM     48  N   UNL     1      22.401  57.409  34.199  0.00  0.00    -0.302 N 
ATOM     49  H   UNL     1      23.055  57.172  34.939  0.00  0.00    +0.149 HD
ATOM     50  C   UNL     1      22.534  56.774  32.962  0.00  0.00    +0.318 C 
ATOM     55  O   UNL     1      21.972  57.212  31.955  0.00  0.00    -0.266 OA
BRANCH  50  51
ATOM     51  C   UNL     1      23.419  55.515  32.947  0.00  0.00    +0.469 C 
ATOM     52  F   UNL     1      22.700  54.379  32.730  0.00  0.00    -0.162 F 
ATOM     53  F   UNL     1      24.091  55.338  34.116  0.00  0.00    -0.162 F 
ATOM     54  F   UNL     1      24.362  55.562  31.961  0.00  0.00    -0.162 F 
ENDBRANCH  50  51
ENDBRANCH  47  48
BRANCH  44  45
ATOM     45  O   UNL     1      22.228  59.043  36.622  0.00  0.00    -0.387 OA
ATOM     46  H   UNL     1      22.988  59.390  37.119  0.00  0.00    +0.210 HD
ENDBRANCH  44  45
ENDBRANCH  39  40
ENDBRANCH   1  39
TORSDOF 16
ENDMDL
MODEL 6
REMARK VINA RESULT:    -7.205      4.221      6.828
REMARK INTER + INTRA:         -15.807
REMARK INTER:                 -12.654
REMARK INTRA:                  -3.153
REMARK UNBOUND:                -2.704
REMARK  Name = C:\Users\HP\Downloads\Anthraquinone_pdb\AD6.pdb
REMARK  19 active torsions:
REMARK  status: ('A' for Active; 'I' for Inactive)
REMARK    1  A    between atoms: C_2  and  O_3
REMARK    2  A    between atoms: O_3  and  C_4
REMARK    3  A    between atoms: C_7  and  N_9
REMARK    4  A    between atoms: C_10  and  C_12
REMARK    5  A    between atoms: C_16  and  O_18
REMARK    6  A    between atoms: C_19  and  C_21
REMARK    7  A    between atoms: C_24  and  O_25
REMARK    8  A    between atoms: C_24  and  C_26
REMARK    9  A    between atoms: C_26  and  C_28
REMARK   10  A    between atoms: C_28  and  O_29
REMARK   11  A    between atoms: O_29  and  C_30
REMARK   12  A    between atoms: C_30  and  C_32
REMARK   13  A    between atoms: C_32  and  C_33
REMARK   14  A    between atoms: C_33  and  C_34
REMARK   15  A    between atoms: C_34  and  C_35
REMARK   16  A    between atoms: C_38  and  O_39
REMARK   17  A    between atoms: C_45  and  O_46
REMARK   18  A    between atoms: O_46  and  C_47
REMARK   19  A    between atoms: C_54  and  O_55
REMARK                            x       y       z     vdW  Elec       q    Type
REMARK                         _______ _______ _______ _____ _____    ______ ____
ROOT
ATOM      1  C   UNL     1      20.401  58.493  29.795  0.00  0.00    +0.158 C 
ATOM      2  C   UNL     1      19.703  59.413  30.787  0.00  0.00    +0.030 A 
ATOM      3  C   UNL     1      20.486  60.147  31.704  0.00  0.00    +0.134 A 
ATOM      6  C   UNL     1      19.927  60.752  32.848  0.00  0.00    +0.078 A 
ATOM      7  C   UNL     1      20.819  61.423  33.825  0.00  0.00    +0.202 C 
ATOM      8  C   UNL     1      20.303  61.833  35.153  0.00  0.00    +0.075 A 
ATOM      9  C   UNL     1      18.938  61.682  35.407  0.00  0.00    +0.037 A 
ATOM     10  C   UNL     1      18.011  61.169  34.352  0.00  0.00    +0.198 C 
ATOM     11  O   UNL     1      16.800  61.132  34.540  0.00  0.00    -0.286 OA
ATOM     12  C   UNL     1      18.435  61.997  36.681  0.00  0.00    +0.012 A 
ATOM     13  C   UNL     1      19.291  62.446  37.691  0.00  0.00    +0.004 A 
ATOM     14  C   UNL     1      20.645  62.627  37.433  0.00  0.00    +0.046 A 
ATOM     15  C   UNL     1      21.161  62.349  36.161  0.00  0.00    +0.132 A 
ATOM     18  O   UNL     1      21.989  61.587  33.508  0.00  0.00    -0.286 OA
ATOM     19  C   UNL     1      18.559  60.647  33.073  0.00  0.00    +0.078 A 
ATOM     20  C   UNL     1      17.752  59.985  32.109  0.00  0.00    +0.132 A 
ATOM     23  C   UNL     1      18.308  59.350  30.967  0.00  0.00    +0.007 A 
ATOM     24  C   UNL     1      17.436  58.605  29.953  0.00  0.00    +0.082 C 
ATOM     25  C   UNL     1      18.164  57.530  29.084  0.00  0.00    +0.134 C 
ATOM     38  C   UNL     1      19.481  58.126  28.597  0.00  0.00    +0.079 C 
ENDROOT
BRANCH   3   4
ATOM      4  O   UNL     1      21.840  60.188  31.454  0.00  0.00    -0.506 OA
ATOM      5  H   UNL     1      21.979  60.613  30.575  0.00  0.00    +0.292 HD
ENDBRANCH   3   4
BRANCH  15  16
ATOM     16  O   UNL     1      22.496  62.493  35.888  0.00  0.00    -0.494 OA
ATOM     17  C   UNL     1      23.104  63.749  36.191  0.00  0.00    +0.277 C 
ENDBRANCH  15  16
BRANCH  20  21
ATOM     21  O   UNL     1      16.391  59.887  32.267  0.00  0.00    -0.506 OA
ATOM     22  H   UNL     1      16.090  59.028  31.895  0.00  0.00    +0.292 HD
ENDBRANCH  20  21
BRANCH  25  26
ATOM     26  O   UNL     1      18.503  56.356  29.833  0.00  0.00    -0.381 OA
ATOM     27  H   UNL     1      18.746  55.658  29.194  0.00  0.00    +0.211 HD
ENDBRANCH  25  26
BRANCH  25  28
ATOM     28  C   UNL     1      17.152  56.902  28.092  0.00  0.00    +0.202 C 
ATOM     37  O   UNL     1      16.772  57.576  27.119  0.00  0.00    -0.291 OA
BRANCH  28  29
ATOM     29  C   UNL     1      16.374  55.625  28.426  0.00  0.00    +0.309 C 
BRANCH  29  30
ATOM     30  O   UNL     1      17.005  54.371  28.242  0.00  0.00    -0.457 OA
BRANCH  30  31
ATOM     31  C   UNL     1      16.930  53.886  26.973  0.00  0.00    +0.307 C 
ATOM     36  O   UNL     1      15.962  53.312  26.497  0.00  0.00    -0.251 OA
BRANCH  31  32
ATOM     32  C   UNL     1      18.207  54.201  26.232  0.00  0.00    +0.120 C 
BRANCH  32  33
ATOM     33  C   UNL     1      19.419  54.201  27.160  0.00  0.00    +0.011 C 
BRANCH  33  34
ATOM     34  C   UNL     1      20.534  55.117  26.654  0.00  0.00    -0.003 C 
ATOM     35  C   UNL     1      20.173  55.796  25.347  0.00  0.00    +0.004 C 
ENDBRANCH  33  34
ENDBRANCH  32  33
ENDBRANCH  31  32
ENDBRANCH  30  31
ENDBRANCH  29  30
ENDBRANCH  28  29
ENDBRANCH  25  28
BRANCH   1  39
ATOM     39  O   UNL     1      20.791  57.423  30.670  0.00  0.00    -0.343 OA
BRANCH  39  40
ATOM     40  C   UNL     1      22.075  56.840  30.550  0.00  0.00    +0.253 C 
ATOM     41  O   UNL     1      21.934  55.433  30.253  0.00  0.00    -0.346 OA
ATOM     42  C   UNL     1      21.421  54.654  31.346  0.00  0.00    +0.148 C 
ATOM     43  C   UNL     1      21.220  53.198  30.929  0.00  0.00    +0.041 C 
ATOM     44  C   UNL     1      22.372  54.733  32.544  0.00  0.00    +0.163 C 
ATOM     47  C   UNL     1      22.436  56.208  32.967  0.00  0.00    +0.109 C 
ATOM     56  C   UNL     1      22.937  57.066  31.801  0.00  0.00    +0.086 C 
BRANCH  47  48
ATOM     48  N   UNL     1      23.239  56.378  34.178  0.00  0.00    -0.302 N 
ATOM     49  H   UNL     1      24.015  55.745  34.349  0.00  0.00    +0.149 HD
ATOM     50  C   UNL     1      22.724  57.107  35.252  0.00  0.00    +0.318 C 
ATOM     55  O   UNL     1      21.625  57.663  35.178  0.00  0.00    -0.266 OA
BRANCH  50  51
ATOM     51  C   UNL     1      23.608  57.162  36.511  0.00  0.00    +0.469 C 
ATOM     52  F   UNL     1      23.686  58.417  37.035  0.00  0.00    -0.162 F 
ATOM     53  F   UNL     1      24.884  56.758  36.268  0.00  0.00    -0.162 F 
ATOM     54  F   UNL     1      23.131  56.362  37.508  0.00  0.00    -0.162 F 
ENDBRANCH  50  51
ENDBRANCH  47  48
BRANCH  44  45
ATOM     45  O   UNL     1      23.690  54.273  32.195  0.00  0.00    -0.387 OA
ATOM     46  H   UNL     1      24.088  54.946  31.617  0.00  0.00    +0.210 HD
ENDBRANCH  44  45
ENDBRANCH  39  40
ENDBRANCH   1  39
TORSDOF 16
ENDMDL
MODEL 7
REMARK VINA RESULT:    -7.094     23.033     26.530
REMARK INTER + INTRA:         -15.604
REMARK INTER:                 -12.826
REMARK INTRA:                  -2.778
REMARK UNBOUND:                -2.704
REMARK  Name = C:\Users\HP\Downloads\Anthraquinone_pdb\AD6.pdb
REMARK  19 active torsions:
REMARK  status: ('A' for Active; 'I' for Inactive)
REMARK    1  A    between atoms: C_2  and  O_3
REMARK    2  A    between atoms: O_3  and  C_4
REMARK    3  A    between atoms: C_7  and  N_9
REMARK    4  A    between atoms: C_10  and  C_12
REMARK    5  A    between atoms: C_16  and  O_18
REMARK    6  A    between atoms: C_19  and  C_21
REMARK    7  A    between atoms: C_24  and  O_25
REMARK    8  A    between atoms: C_24  and  C_26
REMARK    9  A    between atoms: C_26  and  C_28
REMARK   10  A    between atoms: C_28  and  O_29
REMARK   11  A    between atoms: O_29  and  C_30
REMARK   12  A    between atoms: C_30  and  C_32
REMARK   13  A    between atoms: C_32  and  C_33
REMARK   14  A    between atoms: C_33  and  C_34
REMARK   15  A    between atoms: C_34  and  C_35
REMARK   16  A    between atoms: C_38  and  O_39
REMARK   17  A    between atoms: C_45  and  O_46
REMARK   18  A    between atoms: O_46  and  C_47
REMARK   19  A    between atoms: C_54  and  O_55
REMARK                            x       y       z     vdW  Elec       q    Type
REMARK                         _______ _______ _______ _____ _____    ______ ____
ROOT
ATOM      1  C   UNL     1      22.911  45.457   6.712  0.00  0.00    +0.158 C 
ATOM      2  C   UNL     1      22.504  46.920   6.832  0.00  0.00    +0.030 A 
ATOM      3  C   UNL     1      21.556  47.441   5.924  0.00  0.00    +0.134 A 
ATOM      6  C   UNL     1      21.372  48.827   5.749  0.00  0.00    +0.078 A 
ATOM      7  C   UNL     1      20.432  49.310   4.708  0.00  0.00    +0.202 C 
ATOM      8  C   UNL     1      20.412  50.741   4.321  0.00  0.00    +0.075 A 
ATOM      9  C   UNL     1      21.208  51.632   5.044  0.00  0.00    +0.037 A 
ATOM     10  C   UNL     1      22.020  51.167   6.211  0.00  0.00    +0.198 C 
ATOM     11  O   UNL     1      22.638  51.964   6.908  0.00  0.00    -0.286 OA
ATOM     12  C   UNL     1      21.262  52.982   4.655  0.00  0.00    +0.012 A 
ATOM     13  C   UNL     1      20.536  53.429   3.547  0.00  0.00    +0.004 A 
ATOM     14  C   UNL     1      19.719  52.552   2.842  0.00  0.00    +0.046 A 
ATOM     15  C   UNL     1      19.628  51.210   3.234  0.00  0.00    +0.132 A 
ATOM     18  O   UNL     1      19.713  48.484   4.164  0.00  0.00    -0.286 OA
ATOM     19  C   UNL     1      22.127  49.714   6.507  0.00  0.00    +0.078 A 
ATOM     20  C   UNL     1      23.019  49.198   7.485  0.00  0.00    +0.132 A 
ATOM     23  C   UNL     1      23.232  47.803   7.651  0.00  0.00    +0.007 A 
ATOM     24  C   UNL     1      24.224  47.254   8.680  0.00  0.00    +0.082 C 
ATOM     25  C   UNL     1      24.762  45.812   8.411  0.00  0.00    +0.134 C 
ATOM     38  C   UNL     1      23.581  44.933   8.013  0.00  0.00    +0.079 C 
ENDROOT
BRANCH   3   4
ATOM      4  O   UNL     1      20.863  46.519   5.171  0.00  0.00    -0.506 OA
ATOM      5  H   UNL     1      20.583  46.954   4.331  0.00  0.00    +0.292 HD
ENDBRANCH   3   4
BRANCH  15  16
ATOM     16  O   UNL     1      18.851  50.319   2.541  0.00  0.00    -0.494 OA
ATOM     17  C   UNL     1      17.783  50.843   1.750  0.00  0.00    +0.277 C 
ENDBRANCH  15  16
BRANCH  20  21
ATOM     21  O   UNL     1      23.760  50.033   8.285  0.00  0.00    -0.506 OA
ATOM     22  H   UNL     1      24.715  49.841   8.146  0.00  0.00    +0.292 HD
ENDBRANCH  20  21
BRANCH  25  26
ATOM     26  O   UNL     1      25.688  45.767   7.317  0.00  0.00    -0.381 OA
ATOM     27  H   UNL     1      25.549  46.571   6.780  0.00  0.00    +0.211 HD
ENDBRANCH  25  26
BRANCH  25  28
ATOM     28  C   UNL     1      25.719  45.400   9.558  0.00  0.00    +0.202 C 
ATOM     37  O   UNL     1      25.247  45.214  10.692  0.00  0.00    -0.291 OA
BRANCH  28  29
ATOM     29  C   UNL     1      27.241  45.517   9.426  0.00  0.00    +0.309 C 
BRANCH  29  30
ATOM     30  O   UNL     1      27.909  46.560  10.112  0.00  0.00    -0.457 OA
BRANCH  30  31
ATOM     31  C   UNL     1      28.169  47.656   9.349  0.00  0.00    +0.307 C 
ATOM     36  O   UNL     1      27.679  47.880   8.253  0.00  0.00    -0.251 OA
BRANCH  31  32
ATOM     32  C   UNL     1      29.122  48.570  10.081  0.00  0.00    +0.120 C 
BRANCH  32  33
ATOM     33  C   UNL     1      30.370  48.871   9.255  0.00  0.00    +0.011 C 
BRANCH  33  34
ATOM     34  C   UNL     1      30.434  50.336   8.819  0.00  0.00    -0.003 C 
ATOM     35  C   UNL     1      31.101  51.218   9.857  0.00  0.00    +0.004 C 
ENDBRANCH  33  34
ENDBRANCH  32  33
ENDBRANCH  31  32
ENDBRANCH  30  31
ENDBRANCH  29  30
ENDBRANCH  28  29
ENDBRANCH  25  28
BRANCH   1  39
ATOM     39  O   UNL     1      23.730  45.516   5.534  0.00  0.00    -0.343 OA
BRANCH  39  40
ATOM     40  C   UNL     1      24.035  44.331   4.822  0.00  0.00    +0.253 C 
ATOM     41  O   UNL     1      25.132  44.587   3.917  0.00  0.00    -0.346 OA
ATOM     42  C   UNL     1      24.792  45.445   2.816  0.00  0.00    +0.148 C 
ATOM     43  C   UNL     1      26.020  45.737   1.955  0.00  0.00    +0.041 C 
ATOM     44  C   UNL     1      23.693  44.802   1.965  0.00  0.00    +0.163 C 
ATOM     47  C   UNL     1      22.464  44.640   2.871  0.00  0.00    +0.109 C 
ATOM     56  C   UNL     1      22.815  43.767   4.079  0.00  0.00    +0.086 C 
BRANCH  47  48
ATOM     48  N   UNL     1      21.315  44.130   2.122  0.00  0.00    -0.302 N 
ATOM     49  H   UNL     1      21.393  43.235   1.648  0.00  0.00    +0.149 HD
ATOM     50  C   UNL     1      20.302  45.008   1.729  0.00  0.00    +0.318 C 
ATOM     55  O   UNL     1      20.326  46.198   2.053  0.00  0.00    -0.266 OA
BRANCH  50  51
ATOM     51  C   UNL     1      19.177  44.394   0.876  0.00  0.00    +0.469 C 
ATOM     52  F   UNL     1      18.911  45.130  -0.238  0.00  0.00    -0.162 F 
ATOM     53  F   UNL     1      18.008  44.281   1.561  0.00  0.00    -0.162 F 
ATOM     54  F   UNL     1      19.493  43.141   0.437  0.00  0.00    -0.162 F 
ENDBRANCH  50  51
ENDBRANCH  47  48
BRANCH  44  45
ATOM     45  O   UNL     1      24.102  43.514   1.471  0.00  0.00    -0.387 OA
ATOM     46  H   UNL     1      23.949  43.510   0.511  0.00  0.00    +0.210 HD
ENDBRANCH  44  45
ENDBRANCH  39  40
ENDBRANCH   1  39
TORSDOF 16
ENDMDL
MODEL 8
REMARK VINA RESULT:    -6.951      4.296      9.563
REMARK INTER + INTRA:         -15.344
REMARK INTER:                 -12.410
REMARK INTRA:                  -2.934
REMARK UNBOUND:                -2.704
REMARK  Name = C:\Users\HP\Downloads\Anthraquinone_pdb\AD6.pdb
REMARK  19 active torsions:
REMARK  status: ('A' for Active; 'I' for Inactive)
REMARK    1  A    between atoms: C_2  and  O_3
REMARK    2  A    between atoms: O_3  and  C_4
REMARK    3  A    between atoms: C_7  and  N_9
REMARK    4  A    between atoms: C_10  and  C_12
REMARK    5  A    between atoms: C_16  and  O_18
REMARK    6  A    between atoms: C_19  and  C_21
REMARK    7  A    between atoms: C_24  and  O_25
REMARK    8  A    between atoms: C_24  and  C_26
REMARK    9  A    between atoms: C_26  and  C_28
REMARK   10  A    between atoms: C_28  and  O_29
REMARK   11  A    between atoms: O_29  and  C_30
REMARK   12  A    between atoms: C_30  and  C_32
REMARK   13  A    between atoms: C_32  and  C_33
REMARK   14  A    between atoms: C_33  and  C_34
REMARK   15  A    between atoms: C_34  and  C_35
REMARK   16  A    between atoms: C_38  and  O_39
REMARK   17  A    between atoms: C_45  and  O_46
REMARK   18  A    between atoms: O_46  and  C_47
REMARK   19  A    between atoms: C_54  and  O_55
REMARK                            x       y       z     vdW  Elec       q    Type
REMARK                         _______ _______ _______ _____ _____    ______ ____
ROOT
ATOM      1  C   UNL     1      22.761  58.912  33.110  0.00  0.00    +0.158 C 
ATOM      2  C   UNL     1      22.503  57.694  32.234  0.00  0.00    +0.030 A 
ATOM      3  C   UNL     1      21.592  57.807  31.160  0.00  0.00    +0.134 A 
ATOM      6  C   UNL     1      21.051  56.675  30.516  0.00  0.00    +0.078 A 
ATOM      7  C   UNL     1      20.023  56.860  29.463  0.00  0.00    +0.202 C 
ATOM      8  C   UNL     1      19.250  55.700  28.958  0.00  0.00    +0.075 A 
ATOM      9  C   UNL     1      19.599  54.425  29.410  0.00  0.00    +0.037 A 
ATOM     10  C   UNL     1      20.755  54.228  30.339  0.00  0.00    +0.198 C 
ATOM     11  O   UNL     1      21.125  53.102  30.655  0.00  0.00    -0.286 OA
ATOM     12  C   UNL     1      18.838  53.317  29.002  0.00  0.00    +0.012 A 
ATOM     13  C   UNL     1      17.734  53.485  28.162  0.00  0.00    +0.004 A 
ATOM     14  C   UNL     1      17.401  54.748  27.685  0.00  0.00    +0.046 A 
ATOM     15  C   UNL     1      18.165  55.861  28.055  0.00  0.00    +0.132 A 
ATOM     18  O   UNL     1      19.818  57.997  29.063  0.00  0.00    -0.286 OA
ATOM     19  C   UNL     1      21.439  55.406  30.931  0.00  0.00    +0.078 A 
ATOM     20  C   UNL     1      22.421  55.286  31.952  0.00  0.00    +0.132 A 
ATOM     23  C   UNL     1      22.953  56.419  32.624  0.00  0.00    +0.007 A 
ATOM     24  C   UNL     1      23.982  56.280  33.750  0.00  0.00    +0.082 C 
ATOM     25  C   UNL     1      24.078  57.483  34.742  0.00  0.00    +0.134 C 
ATOM     38  C   UNL     1      24.077  58.771  33.925  0.00  0.00    +0.079 C 
ENDROOT
BRANCH   3   4
ATOM      4  O   UNL     1      21.212  59.084  30.814  0.00  0.00    -0.506 OA
ATOM      5  H   UNL     1      22.000  59.554  30.452  0.00  0.00    +0.292 HD
ENDBRANCH   3   4
BRANCH  15  16
ATOM     16  O   UNL     1      17.844  57.121  27.621  0.00  0.00    -0.494 OA
ATOM     17  C   UNL     1      16.527  57.602  27.896  0.00  0.00    +0.277 C 
ENDBRANCH  15  16
BRANCH  20  21
ATOM     21  O   UNL     1      22.865  54.056  32.371  0.00  0.00    -0.506 OA
ATOM     22  H   UNL     1      23.581  53.755  31.768  0.00  0.00    +0.292 HD
ENDBRANCH  20  21
BRANCH  25  26
ATOM     26  O   UNL     1      22.949  57.560  35.622  0.00  0.00    -0.381 OA
ATOM     27  H   UNL     1      22.153  57.686  35.070  0.00  0.00    +0.211 HD
ENDBRANCH  25  26
BRANCH  25  28
ATOM     28  C   UNL     1      25.184  57.197  35.789  0.00  0.00    +0.202 C 
ATOM     37  O   UNL     1      26.363  57.469  35.502  0.00  0.00    -0.291 OA
BRANCH  28  29
ATOM     29  C   UNL     1      24.931  56.319  37.018  0.00  0.00    +0.309 C 
BRANCH  29  30
ATOM     30  O   UNL     1      24.350  55.040  36.838  0.00  0.00    -0.457 OA
BRANCH  30  31
ATOM     31  C   UNL     1      23.102  54.911  37.364  0.00  0.00    +0.307 C 
ATOM     36  O   UNL     1      22.061  55.045  36.740  0.00  0.00    -0.251 OA
BRANCH  31  32
ATOM     32  C   UNL     1      23.202  54.539  38.823  0.00  0.00    +0.120 C 
BRANCH  32  33
ATOM     33  C   UNL     1      21.834  54.238  39.429  0.00  0.00    +0.011 C 
BRANCH  33  34
ATOM     34  C   UNL     1      21.330  55.380  40.313  0.00  0.00    -0.003 C 
ATOM     35  C   UNL     1      22.456  56.270  40.803  0.00  0.00    +0.004 C 
ENDBRANCH  33  34
ENDBRANCH  32  33
ENDBRANCH  31  32
ENDBRANCH  30  31
ENDBRANCH  29  30
ENDBRANCH  28  29
ENDBRANCH  25  28
BRANCH   1  39
ATOM     39  O   UNL     1      21.534  58.955  33.854  0.00  0.00    -0.343 OA
BRANCH  39  40
ATOM     40  C   UNL     1      21.175  60.127  34.564  0.00  0.00    +0.253 C 
ATOM     41  O   UNL     1      19.977  59.873  35.329  0.00  0.00    -0.346 OA
ATOM     42  C   UNL     1      18.795  59.709  34.528  0.00  0.00    +0.148 C 
ATOM     43  C   UNL     1      17.590  59.360  35.399  0.00  0.00    +0.041 C 
ATOM     44  C   UNL     1      18.516  60.987  33.731  0.00  0.00    +0.163 C 
ATOM     47  C   UNL     1      19.722  61.209  32.806  0.00  0.00    +0.109 C 
ATOM     56  C   UNL     1      21.002  61.339  33.637  0.00  0.00    +0.086 C 
BRANCH  47  48
ATOM     48  N   UNL     1      19.507  62.352  31.919  0.00  0.00    -0.302 N 
ATOM     49  H   UNL     1      19.398  63.278  32.324  0.00  0.00    +0.149 HD
ATOM     50  C   UNL     1      19.063  62.139  30.612  0.00  0.00    +0.318 C 
ATOM     55  O   UNL     1      18.903  60.998  30.169  0.00  0.00    -0.266 OA
BRANCH  50  51
ATOM     51  C   UNL     1      18.788  63.406  29.782  0.00  0.00    +0.469 C 
ATOM     52  F   UNL     1      19.597  64.442  30.136  0.00  0.00    -0.162 F 
ATOM     53  F   UNL     1      17.507  63.845  29.913  0.00  0.00    -0.162 F 
ATOM     54  F   UNL     1      18.993  63.200  28.449  0.00  0.00    -0.162 F 
ENDBRANCH  50  51
ENDBRANCH  47  48
BRANCH  44  45
ATOM     45  O   UNL     1      18.360  62.122  34.602  0.00  0.00    -0.387 OA
ATOM     46  H   UNL     1      17.528  62.560  34.361  0.00  0.00    +0.210 HD
ENDBRANCH  44  45
ENDBRANCH  39  40
ENDBRANCH   1  39
TORSDOF 16
ENDMDL
MODEL 9
REMARK VINA RESULT:    -6.843      4.345      7.131
REMARK INTER + INTRA:         -15.147
REMARK INTER:                 -12.078
REMARK INTRA:                  -3.069
REMARK UNBOUND:                -2.704
REMARK  Name = C:\Users\HP\Downloads\Anthraquinone_pdb\AD6.pdb
REMARK  19 active torsions:
REMARK  status: ('A' for Active; 'I' for Inactive)
REMARK    1  A    between atoms: C_2  and  O_3
REMARK    2  A    between atoms: O_3  and  C_4
REMARK    3  A    between atoms: C_7  and  N_9
REMARK    4  A    between atoms: C_10  and  C_12
REMARK    5  A    between atoms: C_16  and  O_18
REMARK    6  A    between atoms: C_19  and  C_21
REMARK    7  A    between atoms: C_24  and  O_25
REMARK    8  A    between atoms: C_24  and  C_26
REMARK    9  A    between atoms: C_26  and  C_28
REMARK   10  A    between atoms: C_28  and  O_29
REMARK   11  A    between atoms: O_29  and  C_30
REMARK   12  A    between atoms: C_30  and  C_32
REMARK   13  A    between atoms: C_32  and  C_33
REMARK   14  A    between atoms: C_33  and  C_34
REMARK   15  A    between atoms: C_34  and  C_35
REMARK   16  A    between atoms: C_38  and  O_39
REMARK   17  A    between atoms: C_45  and  O_46
REMARK   18  A    between atoms: O_46  and  C_47
REMARK   19  A    between atoms: C_54  and  O_55
REMARK                            x       y       z     vdW  Elec       q    Type
REMARK                         _______ _______ _______ _____ _____    ______ ____
ROOT
ATOM      1  C   UNL     1      20.250  58.822  29.603  0.00  0.00    +0.158 C 
ATOM      2  C   UNL     1      19.603  59.625  30.723  0.00  0.00    +0.030 A 
ATOM      3  C   UNL     1      20.424  60.419  31.554  0.00  0.00    +0.134 A 
ATOM      6  C   UNL     1      19.972  60.921  32.791  0.00  0.00    +0.078 A 
ATOM      7  C   UNL     1      20.914  61.663  33.664  0.00  0.00    +0.202 C 
ATOM      8  C   UNL     1      20.553  61.972  35.068  0.00  0.00    +0.075 A 
ATOM      9  C   UNL     1      19.263  61.655  35.503  0.00  0.00    +0.037 A 
ATOM     10  C   UNL     1      18.257  61.067  34.565  0.00  0.00    +0.198 C 
ATOM     11  O   UNL     1      17.097  60.884  34.919  0.00  0.00    -0.286 OA
ATOM     12  C   UNL     1      18.917  61.872  36.848  0.00  0.00    +0.012 A 
ATOM     13  C   UNL     1      19.854  62.388  37.747  0.00  0.00    +0.004 A 
ATOM     14  C   UNL     1      21.129  62.734  37.311  0.00  0.00    +0.046 A 
ATOM     15  C   UNL     1      21.484  62.554  35.969  0.00  0.00    +0.132 A 
ATOM     18  O   UNL     1      22.000  61.971  33.194  0.00  0.00    -0.286 OA
ATOM     19  C   UNL     1      18.670  60.650  33.201  0.00  0.00    +0.078 A 
ATOM     20  C   UNL     1      17.812  59.927  32.330  0.00  0.00    +0.132 A 
ATOM     23  C   UNL     1      18.265  59.394  31.093  0.00  0.00    +0.007 A 
ATOM     24  C   UNL     1      17.345  58.582  30.178  0.00  0.00    +0.082 C 
ATOM     25  C   UNL     1      18.055  57.625  29.168  0.00  0.00    +0.134 C 
ATOM     38  C   UNL     1      19.213  58.385  28.530  0.00  0.00    +0.079 C 
ENDROOT
BRANCH   3   4
ATOM      4  O   UNL     1      21.714  60.625  31.120  0.00  0.00    -0.506 OA
ATOM      5  H   UNL     1      21.677  61.088  30.249  0.00  0.00    +0.292 HD
ENDBRANCH   3   4
BRANCH  15  16
ATOM     16  O   UNL     1      22.741  62.861  35.518  0.00  0.00    -0.494 OA
ATOM     17  C   UNL     1      23.526  63.760  36.303  0.00  0.00    +0.277 C 
ENDBRANCH  15  16
BRANCH  20  21
ATOM     21  O   UNL     1      16.507  59.665  32.672  0.00  0.00    -0.506 OA
ATOM     22  H   UNL     1      16.037  60.519  32.805  0.00  0.00    +0.292 HD
ENDBRANCH  20  21
BRANCH  25  26
ATOM     26  O   UNL     1      18.627  56.478  29.809  0.00  0.00    -0.381 OA
ATOM     27  H   UNL     1      18.623  55.746  29.162  0.00  0.00    +0.211 HD
ENDBRANCH  25  26
BRANCH  25  28
ATOM     28  C   UNL     1      16.987  56.912  28.300  0.00  0.00    +0.202 C 
ATOM     37  O   UNL     1      16.399  57.565  27.421  0.00  0.00    -0.291 OA
BRANCH  28  29
ATOM     29  C   UNL     1      16.412  55.545  28.681  0.00  0.00    +0.309 C 
BRANCH  29  30
ATOM     30  O   UNL     1      17.153  54.379  28.367  0.00  0.00    -0.457 OA
BRANCH  30  31
ATOM     31  C   UNL     1      17.018  53.959  27.080  0.00  0.00    +0.307 C 
ATOM     36  O   UNL     1      16.006  53.470  26.604  0.00  0.00    -0.251 OA
BRANCH  31  32
ATOM     32  C   UNL     1      18.295  54.230  26.321  0.00  0.00    +0.120 C 
BRANCH  32  33
ATOM     33  C   UNL     1      19.503  54.310  27.250  0.00  0.00    +0.011 C 
BRANCH  33  34
ATOM     34  C   UNL     1      20.658  55.097  26.629  0.00  0.00    -0.003 C 
ATOM     35  C   UNL     1      20.211  55.945  25.454  0.00  0.00    +0.004 C 
ENDBRANCH  33  34
ENDBRANCH  32  33
ENDBRANCH  31  32
ENDBRANCH  30  31
ENDBRANCH  29  30
ENDBRANCH  28  29
ENDBRANCH  25  28
BRANCH   1  39
ATOM     39  O   UNL     1      20.878  57.780  30.365  0.00  0.00    -0.343 OA
BRANCH  39  40
ATOM     40  C   UNL     1      21.768  56.878  29.735  0.00  0.00    +0.253 C 
ATOM     41  O   UNL     1      22.081  55.802  30.647  0.00  0.00    -0.346 OA
ATOM     42  C   UNL     1      22.896  56.199  31.762  0.00  0.00    +0.148 C 
ATOM     43  C   UNL     1      23.112  55.031  32.723  0.00  0.00    +0.041 C 
ATOM     44  C   UNL     1      24.245  56.731  31.269  0.00  0.00    +0.163 C 
ATOM     47  C   UNL     1      23.949  57.963  30.400  0.00  0.00    +0.109 C 
ATOM     56  C   UNL     1      23.042  57.572  29.230  0.00  0.00    +0.086 C 
BRANCH  47  48
ATOM     48  N   UNL     1      25.184  58.614  29.964  0.00  0.00    -0.302 N 
ATOM     49  H   UNL     1      26.024  58.054  29.852  0.00  0.00    +0.149 HD
ATOM     50  C   UNL     1      25.316  59.999  30.088  0.00  0.00    +0.318 C 
ATOM     55  O   UNL     1      24.386  60.695  30.504  0.00  0.00    -0.266 OA
BRANCH  50  51
ATOM     51  C   UNL     1      26.681  60.581  29.678  0.00  0.00    +0.469 C 
ATOM     52  F   UNL     1      26.558  61.667  28.865  0.00  0.00    -0.162 F 
ATOM     53  F   UNL     1      27.453  59.679  29.014  0.00  0.00    -0.162 F 
ATOM     54  F   UNL     1      27.407  60.994  30.757  0.00  0.00    -0.162 F 
ENDBRANCH  50  51
ENDBRANCH  47  48
BRANCH  44  45
ATOM     45  O   UNL     1      24.940  55.744  30.485  0.00  0.00    -0.387 OA
ATOM     46  H   UNL     1      24.469  55.662  29.639  0.00  0.00    +0.210 HD
ENDBRANCH  44  45
ENDBRANCH  39  40
ENDBRANCH   1  39
TORSDOF 16
ENDMDL
