MODEL 1
REMARK VINA RESULT:    -8.763      0.000      0.000
REMARK INTER + INTRA:         -12.955
REMARK INTER:                 -12.093
REMARK INTRA:                  -0.862
REMARK UNBOUND:                -0.862
REMARK  Name = C:\Users\HP\Downloads\Anthraquinone_pdb\AD7.pdb
REMARK  12 active torsions:
REMARK  status: ('A' for Active; 'I' for Inactive)
REMARK    1  A    between atoms: O_1  and  C_12
REMARK    2  A    between atoms: O_1  and  C_18
REMARK    3  A    between atoms: O_3  and  C_13
REMARK    4  A    between atoms: O_4  and  C_21
REMARK    5  A    between atoms: O_5  and  C_23
REMARK    6  A    between atoms: O_6  and  C_25
REMARK    7  A    between atoms: O_10  and  C_34
REMARK    8  A    between atoms: O_10  and  C_38
REMARK    9  A    between atoms: N_11  and  C_20
REMARK   10  A    between atoms: C_13  and  C_24
REMARK   11  A    between atoms: C_22  and  C_28
REMARK   12  A    between atoms: C_24  and  C_29
REMARK                            x       y       z     vdW  Elec       q    Type
REMARK                         _______ _______ _______ _____ _____    ______ ____
ROOT
ATOM     14  C   UNL     1      21.068  56.929  27.961  0.00  0.00    +0.158 C 
ATOM     15  C   UNL     1      20.767  58.372  28.288  0.00  0.00    +0.030 A 
ATOM     16  C   UNL     1      19.864  58.658  29.326  0.00  0.00    +0.134 A 
ATOM     17  C   UNL     1      19.542  59.981  29.651  0.00  0.00    +0.078 A 
ATOM     18  C   UNL     1      18.592  60.253  30.750  0.00  0.00    +0.202 C 
ATOM     19  C   UNL     1      18.272  61.655  31.089  0.00  0.00    +0.075 A 
ATOM     20  C   UNL     1      17.379  61.927  32.132  0.00  0.00    +0.132 A 
ATOM     21  C   UNL     1      17.072  63.248  32.459  0.00  0.00    +0.046 A 
ATOM     22  C   UNL     1      17.652  64.298  31.749  0.00  0.00    +0.004 A 
ATOM     23  C   UNL     1      18.543  64.030  30.708  0.00  0.00    +0.012 A 
ATOM     26  C   UNL     1      18.854  62.706  30.377  0.00  0.00    +0.037 A 
ATOM     27  C   UNL     1      19.797  62.431  29.274  0.00  0.00    +0.198 C 
ATOM     28  O   UNL     1      20.302  63.353  28.645  0.00  0.00    -0.286 OA
ATOM     29  O   UNL     1      18.079  59.331  31.371  0.00  0.00    -0.286 OA
ATOM     30  C   UNL     1      20.120  61.029  28.939  0.00  0.00    +0.078 A 
ATOM     31  C   UNL     1      21.016  60.754  27.900  0.00  0.00    +0.132 A 
ATOM     36  C   UNL     1      21.338  59.429  27.560  0.00  0.00    +0.007 A 
ATOM     37  C   UNL     1      22.341  59.193  26.452  0.00  0.00    +0.082 C 
ATOM     38  C   UNL     1      22.377  57.748  25.946  0.00  0.00    +0.130 C 
ATOM     44  C   UNL     1      22.331  56.755  27.110  0.00  0.00    +0.079 C 
ENDROOT
BRANCH  38  39
ATOM     39  C   UNL     1      23.625  57.532  25.136  0.00  0.00    +0.162 C 
ATOM     40  C   UNL     1      24.049  58.659  24.234  0.00  0.00    +0.089 C 
ATOM     41  O   UNL     1      24.267  56.486  25.206  0.00  0.00    -0.295 OA
ENDBRANCH  38  39
BRANCH  20  24
ATOM     24  O   UNL     1      16.776  60.951  32.869  0.00  0.00    -0.494 OA
ATOM     25  C   UNL     1      17.174  60.833  34.233  0.00  0.00    +0.277 C 
ENDBRANCH  20  24
BRANCH  31  32
ATOM     32  O   UNL     1      21.612  61.764  27.195  0.00  0.00    -0.506 OA
ATOM     33  H   UNL     1      20.995  62.147  26.552  0.00  0.00    +0.292 HD
ENDBRANCH  31  32
BRANCH  16  34
ATOM     34  O   UNL     1      19.308  57.606  30.001  0.00  0.00    -0.506 OA
ATOM     35  H   UNL     1      19.584  56.766  29.605  0.00  0.00    +0.292 HD
ENDBRANCH  16  34
BRANCH  38  42
ATOM     42  O   UNL     1      21.302  57.498  25.051  0.00  0.00    -0.381 OA
ATOM     43  H   UNL     1      21.510  56.718  24.509  0.00  0.00    +0.211 HD
ENDBRANCH  38  42
BRANCH  14   1
ATOM      1  O   UNL     1      19.938  56.389  27.279  0.00  0.00    -0.343 OA
BRANCH   1   2
ATOM      2  C   UNL     1      19.682  55.048  27.689  0.00  0.00    +0.253 C 
ATOM      3  C   UNL     1      18.488  55.022  28.646  0.00  0.00    +0.082 C 
ATOM      4  C   UNL     1      17.185  55.319  27.896  0.00  0.00    +0.087 C 
ATOM      5  C   UNL     1      17.041  54.383  26.688  0.00  0.00    +0.160 C 
ATOM      6  C   UNL     1      18.300  54.469  25.813  0.00  0.00    +0.148 C 
ATOM      7  C   UNL     1      18.263  53.489  24.644  0.00  0.00    +0.041 C 
ATOM     13  O   UNL     1      19.474  54.170  26.580  0.00  0.00    -0.346 OA
BRANCH   4  10
ATOM     10  N   UNL     1      16.043  55.193  28.799  0.00  0.00    -0.325 NA
ATOM     11  H   UNL     1      16.192  54.412  29.437  0.00  0.00    +0.119 HD
ATOM     12  H   UNL     1      15.973  56.026  29.383  0.00  0.00    +0.119 HD
ENDBRANCH   4  10
BRANCH   5   8
ATOM      8  O   UNL     1      16.879  53.032  27.126  0.00  0.00    -0.388 OA
ATOM      9  H   UNL     1      17.736  52.726  27.465  0.00  0.00    +0.210 HD
ENDBRANCH   5   8
ENDBRANCH   1   2
ENDBRANCH  14   1
TORSDOF 9
ENDMDL
MODEL 2
REMARK VINA RESULT:    -8.489      3.114      7.392
REMARK INTER + INTRA:         -12.576
REMARK INTER:                 -11.467
REMARK INTRA:                  -1.109
REMARK UNBOUND:                -0.862
REMARK  Name = C:\Users\HP\Downloads\Anthraquinone_pdb\AD7.pdb
REMARK  12 active torsions:
REMARK  status: ('A' for Active; 'I' for Inactive)
REMARK    1  A    between atoms: O_1  and  C_12
REMARK    2  A    between atoms: O_1  and  C_18
REMARK    3  A    between atoms: O_3  and  C_13
REMARK    4  A    between atoms: O_4  and  C_21
REMARK    5  A    between atoms: O_5  and  C_23
REMARK    6  A    between atoms: O_6  and  C_25
REMARK    7  A    between atoms: O_10  and  C_34
REMARK    8  A    between atoms: O_10  and  C_38
REMARK    9  A    between atoms: N_11  and  C_20
REMARK   10  A    between atoms: C_13  and  C_24
REMARK   11  A    between atoms: C_22  and  C_28
REMARK   12  A    between atoms: C_24  and  C_29
REMARK                            x       y       z     vdW  Elec       q    Type
REMARK                         _______ _______ _______ _____ _____    ______ ____
ROOT
ATOM     14  C   UNL     1      21.030  55.982  27.431  0.00  0.00    +0.158 C 
ATOM     15  C   UNL     1      21.953  56.549  26.380  0.00  0.00    +0.030 A 
ATOM     16  C   UNL     1      23.031  57.355  26.785  0.00  0.00    +0.134 A 
ATOM     17  C   UNL     1      23.900  57.915  25.843  0.00  0.00    +0.078 A 
ATOM     18  C   UNL     1      25.028  58.755  26.298  0.00  0.00    +0.202 C 
ATOM     19  C   UNL     1      25.944  59.330  25.292  0.00  0.00    +0.075 A 
ATOM     20  C   UNL     1      27.020  60.123  25.710  0.00  0.00    +0.132 A 
ATOM     21  C   UNL     1      27.891  60.669  24.766  0.00  0.00    +0.046 A 
ATOM     22  C   UNL     1      27.691  60.427  23.408  0.00  0.00    +0.004 A 
ATOM     23  C   UNL     1      26.619  59.638  22.989  0.00  0.00    +0.012 A 
ATOM     26  C   UNL     1      25.743  59.088  23.932  0.00  0.00    +0.037 A 
ATOM     27  C   UNL     1      24.612  58.255  23.479  0.00  0.00    +0.198 C 
ATOM     28  O   UNL     1      24.432  58.047  22.286  0.00  0.00    -0.286 OA
ATOM     29  O   UNL     1      25.201  58.971  27.491  0.00  0.00    -0.286 OA
ATOM     30  C   UNL     1      23.699  57.676  24.486  0.00  0.00    +0.078 A 
ATOM     31  C   UNL     1      22.626  56.880  24.072  0.00  0.00    +0.132 A 
ATOM     36  C   UNL     1      21.741  56.320  25.010  0.00  0.00    +0.007 A 
ATOM     37  C   UNL     1      20.620  55.438  24.507  0.00  0.00    +0.082 C 
ATOM     38  C   UNL     1      19.540  55.149  25.553  0.00  0.00    +0.130 C 
ATOM     44  C   UNL     1      20.163  54.829  26.914  0.00  0.00    +0.079 C 
ENDROOT
BRANCH  38  39
ATOM     39  C   UNL     1      18.691  53.996  25.093  0.00  0.00    +0.162 C 
ATOM     40  C   UNL     1      17.322  53.878  25.703  0.00  0.00    +0.089 C 
ATOM     41  O   UNL     1      19.098  53.189  24.259  0.00  0.00    -0.295 OA
ENDBRANCH  38  39
BRANCH  20  24
ATOM     24  O   UNL     1      27.276  60.399  27.021  0.00  0.00    -0.494 OA
ATOM     25  C   UNL     1      27.507  61.764  27.360  0.00  0.00    +0.277 C 
ENDBRANCH  20  24
BRANCH  31  32
ATOM     32  O   UNL     1      22.413  56.614  22.747  0.00  0.00    -0.506 OA
ATOM     33  H   UNL     1      23.136  56.963  22.203  0.00  0.00    +0.292 HD
ENDBRANCH  31  32
BRANCH  16  34
ATOM     34  O   UNL     1      23.197  57.576  28.125  0.00  0.00    -0.506 OA
ATOM     35  H   UNL     1      23.083  58.516  28.331  0.00  0.00    +0.292 HD
ENDBRANCH  16  34
BRANCH  38  42
ATOM     42  O   UNL     1      18.646  56.247  25.674  0.00  0.00    -0.381 OA
ATOM     43  H   UNL     1      19.137  57.076  25.551  0.00  0.00    +0.211 HD
ENDBRANCH  38  42
BRANCH  14   1
ATOM      1  O   UNL     1      20.205  57.042  27.909  0.00  0.00    -0.343 OA
BRANCH   1   2
ATOM      2  C   UNL     1      19.666  56.738  29.192  0.00  0.00    +0.253 C 
ATOM      3  C   UNL     1      19.935  57.901  30.151  0.00  0.00    +0.082 C 
ATOM      4  C   UNL     1      19.073  59.115  29.787  0.00  0.00    +0.087 C 
ATOM      5  C   UNL     1      17.595  58.709  29.692  0.00  0.00    +0.160 C 
ATOM      6  C   UNL     1      17.445  57.523  28.727  0.00  0.00    +0.148 C 
ATOM      7  C   UNL     1      16.011  57.008  28.661  0.00  0.00    +0.041 C 
ATOM     13  O   UNL     1      18.272  56.427  29.138  0.00  0.00    -0.346 OA
BRANCH   4  10
ATOM     10  N   UNL     1      19.264  60.181  30.768  0.00  0.00    -0.325 NA
ATOM     11  H   UNL     1      19.040  59.837  31.700  0.00  0.00    +0.119 HD
ATOM     12  H   UNL     1      20.247  60.451  30.794  0.00  0.00    +0.119 HD
ENDBRANCH   4  10
BRANCH   5   8
ATOM      8  O   UNL     1      17.106  58.320  30.976  0.00  0.00    -0.388 OA
ATOM      9  H   UNL     1      17.427  58.969  31.625  0.00  0.00    +0.210 HD
ENDBRANCH   5   8
ENDBRANCH   1   2
ENDBRANCH  14   1
TORSDOF 9
ENDMDL
MODEL 3
REMARK VINA RESULT:    -8.431      2.022      2.830
REMARK INTER + INTRA:         -12.496
REMARK INTER:                 -11.679
REMARK INTRA:                  -0.817
REMARK UNBOUND:                -0.862
REMARK  Name = C:\Users\HP\Downloads\Anthraquinone_pdb\AD7.pdb
REMARK  12 active torsions:
REMARK  status: ('A' for Active; 'I' for Inactive)
REMARK    1  A    between atoms: O_1  and  C_12
REMARK    2  A    between atoms: O_1  and  C_18
REMARK    3  A    between atoms: O_3  and  C_13
REMARK    4  A    between atoms: O_4  and  C_21
REMARK    5  A    between atoms: O_5  and  C_23
REMARK    6  A    between atoms: O_6  and  C_25
REMARK    7  A    between atoms: O_10  and  C_34
REMARK    8  A    between atoms: O_10  and  C_38
REMARK    9  A    between atoms: N_11  and  C_20
REMARK   10  A    between atoms: C_13  and  C_24
REMARK   11  A    between atoms: C_22  and  C_28
REMARK   12  A    between atoms: C_24  and  C_29
REMARK                            x       y       z     vdW  Elec       q    Type
REMARK                         _______ _______ _______ _____ _____    ______ ____
ROOT
ATOM     14  C   UNL     1      22.550  58.896  26.418  0.00  0.00    +0.158 C 
ATOM     15  C   UNL     1      21.848  60.040  27.110  0.00  0.00    +0.030 A 
ATOM     16  C   UNL     1      21.094  59.775  28.266  0.00  0.00    +0.134 A 
ATOM     17  C   UNL     1      20.413  60.802  28.929  0.00  0.00    +0.078 A 
ATOM     18  C   UNL     1      19.632  60.495  30.145  0.00  0.00    +0.202 C 
ATOM     19  C   UNL     1      18.929  61.592  30.840  0.00  0.00    +0.075 A 
ATOM     20  C   UNL     1      18.189  61.316  31.997  0.00  0.00    +0.132 A 
ATOM     21  C   UNL     1      17.523  62.346  32.660  0.00  0.00    +0.046 A 
ATOM     22  C   UNL     1      17.591  63.651  32.173  0.00  0.00    +0.004 A 
ATOM     23  C   UNL     1      18.327  63.929  31.020  0.00  0.00    +0.012 A 
ATOM     26  C   UNL     1      18.997  62.898  30.352  0.00  0.00    +0.037 A 
ATOM     27  C   UNL     1      19.772  63.202  29.132  0.00  0.00    +0.198 C 
ATOM     28  O   UNL     1      19.827  64.346  28.700  0.00  0.00    -0.286 OA
ATOM     29  O   UNL     1      19.568  59.348  30.570  0.00  0.00    -0.286 OA
ATOM     30  C   UNL     1      20.480  62.105  28.440  0.00  0.00    +0.078 A 
ATOM     31  C   UNL     1      21.223  62.378  27.287  0.00  0.00    +0.132 A 
ATOM     36  C   UNL     1      21.902  61.351  26.609  0.00  0.00    +0.007 A 
ATOM     37  C   UNL     1      22.720  61.712  25.388  0.00  0.00    +0.082 C 
ATOM     38  C   UNL     1      23.146  60.505  24.547  0.00  0.00    +0.130 C 
ATOM     44  C   UNL     1      23.632  59.358  25.436  0.00  0.00    +0.079 C 
ENDROOT
BRANCH  38  39
ATOM     39  C   UNL     1      24.235  60.916  23.596  0.00  0.00    +0.162 C 
ATOM     40  C   UNL     1      25.570  60.244  23.766  0.00  0.00    +0.089 C 
ATOM     41  O   UNL     1      24.045  61.761  22.724  0.00  0.00    -0.295 OA
ENDBRANCH  38  39
BRANCH  20  24
ATOM     24  O   UNL     1      18.081  60.065  32.530  0.00  0.00    -0.494 OA
ATOM     25  C   UNL     1      16.774  59.631  32.897  0.00  0.00    +0.277 C 
ENDBRANCH  20  24
BRANCH  31  32
ATOM     32  O   UNL     1      21.319  63.650  26.794  0.00  0.00    -0.506 OA
ATOM     33  H   UNL     1      20.455  63.972  26.494  0.00  0.00    +0.292 HD
ENDBRANCH  31  32
BRANCH  16  34
ATOM     34  O   UNL     1      21.044  58.483  28.716  0.00  0.00    -0.506 OA
ATOM     35  H   UNL     1      21.938  58.114  28.786  0.00  0.00    +0.292 HD
ENDBRANCH  16  34
BRANCH  38  42
ATOM     42  O   UNL     1      22.077  60.061  23.722  0.00  0.00    -0.381 OA
ATOM     43  H   UNL     1      21.258  60.512  23.988  0.00  0.00    +0.211 HD
ENDBRANCH  38  42
BRANCH  14   1
ATOM      1  O   UNL     1      21.563  58.126  25.735  0.00  0.00    -0.343 OA
BRANCH   1   2
ATOM      2  C   UNL     1      22.087  56.866  25.323  0.00  0.00    +0.253 C 
ATOM      3  C   UNL     1      22.788  56.190  26.504  0.00  0.00    +0.082 C 
ATOM      4  C   UNL     1      21.765  55.721  27.545  0.00  0.00    +0.087 C 
ATOM      5  C   UNL     1      20.686  54.856  26.878  0.00  0.00    +0.160 C 
ATOM      6  C   UNL     1      20.070  55.619  25.696  0.00  0.00    +0.148 C 
ATOM      7  C   UNL     1      19.055  54.777  24.929  0.00  0.00    +0.041 C 
ATOM     13  O   UNL     1      21.084  56.015  24.763  0.00  0.00    -0.346 OA
BRANCH   4  10
ATOM     10  N   UNL     1      22.438  54.989  28.618  0.00  0.00    -0.325 NA
ATOM     11  H   UNL     1      21.930  54.129  28.819  0.00  0.00    +0.119 HD
ATOM     12  H   UNL     1      23.367  54.704  28.309  0.00  0.00    +0.119 HD
ENDBRANCH   4  10
BRANCH   5   8
ATOM      8  O   UNL     1      21.257  53.640  26.392  0.00  0.00    -0.388 OA
ATOM      9  H   UNL     1      20.722  52.904  26.733  0.00  0.00    +0.210 HD
ENDBRANCH   5   8
ENDBRANCH   1   2
ENDBRANCH  14   1
TORSDOF 9
ENDMDL
MODEL 4
REMARK VINA RESULT:    -8.256      2.580      3.258
REMARK INTER + INTRA:         -12.255
REMARK INTER:                 -11.151
REMARK INTRA:                  -1.103
REMARK UNBOUND:                -0.862
REMARK  Name = C:\Users\HP\Downloads\Anthraquinone_pdb\AD7.pdb
REMARK  12 active torsions:
REMARK  status: ('A' for Active; 'I' for Inactive)
REMARK    1  A    between atoms: O_1  and  C_12
REMARK    2  A    between atoms: O_1  and  C_18
REMARK    3  A    between atoms: O_3  and  C_13
REMARK    4  A    between atoms: O_4  and  C_21
REMARK    5  A    between atoms: O_5  and  C_23
REMARK    6  A    between atoms: O_6  and  C_25
REMARK    7  A    between atoms: O_10  and  C_34
REMARK    8  A    between atoms: O_10  and  C_38
REMARK    9  A    between atoms: N_11  and  C_20
REMARK   10  A    between atoms: C_13  and  C_24
REMARK   11  A    between atoms: C_22  and  C_28
REMARK   12  A    between atoms: C_24  and  C_29
REMARK                            x       y       z     vdW  Elec       q    Type
REMARK                         _______ _______ _______ _____ _____    ______ ____
ROOT
ATOM     14  C   UNL     1      22.745  59.453  28.414  0.00  0.00    +0.158 C 
ATOM     15  C   UNL     1      21.619  60.340  28.887  0.00  0.00    +0.030 A 
ATOM     16  C   UNL     1      21.028  60.079  30.135  0.00  0.00    +0.134 A 
ATOM     17  C   UNL     1      19.969  60.865  30.605  0.00  0.00    +0.078 A 
ATOM     18  C   UNL     1      19.370  60.571  31.924  0.00  0.00    +0.202 C 
ATOM     19  C   UNL     1      18.262  61.417  32.410  0.00  0.00    +0.075 A 
ATOM     20  C   UNL     1      17.689  61.154  33.661  0.00  0.00    +0.132 A 
ATOM     21  C   UNL     1      16.642  61.948  34.128  0.00  0.00    +0.046 A 
ATOM     22  C   UNL     1      16.164  63.004  33.353  0.00  0.00    +0.004 A 
ATOM     23  C   UNL     1      16.733  63.269  32.107  0.00  0.00    +0.012 A 
ATOM     26  C   UNL     1      17.784  62.474  31.633  0.00  0.00    +0.037 A 
ATOM     27  C   UNL     1      18.379  62.761  30.313  0.00  0.00    +0.198 C 
ATOM     28  O   UNL     1      17.955  63.684  29.628  0.00  0.00    -0.286 OA
ATOM     29  O   UNL     1      19.787  59.641  32.602  0.00  0.00    -0.286 OA
ATOM     30  C   UNL     1      19.491  61.918  29.829  0.00  0.00    +0.078 A 
ATOM     31  C   UNL     1      20.068  62.181  28.582  0.00  0.00    +0.132 A 
ATOM     36  C   UNL     1      21.126  61.392  28.097  0.00  0.00    +0.007 A 
ATOM     37  C   UNL     1      21.735  61.746  26.759  0.00  0.00    +0.082 C 
ATOM     38  C   UNL     1      22.640  60.655  26.180  0.00  0.00    +0.130 C 
ATOM     44  C   UNL     1      23.549  60.063  27.260  0.00  0.00    +0.079 C 
ENDROOT
BRANCH  38  39
ATOM     39  C   UNL     1      23.471  61.231  25.068  0.00  0.00    +0.162 C 
ATOM     40  C   UNL     1      22.727  61.759  23.872  0.00  0.00    +0.089 C 
ATOM     41  O   UNL     1      24.699  61.266  25.132  0.00  0.00    -0.295 OA
ENDBRANCH  38  39
BRANCH  20  24
ATOM     24  O   UNL     1      18.106  60.140  34.472  0.00  0.00    -0.494 OA
ATOM     25  C   UNL     1      18.442  60.483  35.814  0.00  0.00    +0.277 C 
ENDBRANCH  20  24
BRANCH  31  32
ATOM     32  O   UNL     1      19.630  63.219  27.805  0.00  0.00    -0.506 OA
ATOM     33  H   UNL     1      19.926  63.113  26.887  0.00  0.00    +0.292 HD
ENDBRANCH  31  32
BRANCH  16  34
ATOM     34  O   UNL     1      21.517  59.034  30.870  0.00  0.00    -0.506 OA
ATOM     35  H   UNL     1      22.400  59.243  31.211  0.00  0.00    +0.292 HD
ENDBRANCH  16  34
BRANCH  38  42
ATOM     42  O   UNL     1      21.869  59.625  25.577  0.00  0.00    -0.381 OA
ATOM     43  H   UNL     1      21.032  59.999  25.254  0.00  0.00    +0.211 HD
ENDBRANCH  38  42
BRANCH  14   1
ATOM      1  O   UNL     1      22.183  58.205  28.014  0.00  0.00    -0.343 OA
BRANCH   1   2
ATOM      2  C   UNL     1      23.140  57.154  28.110  0.00  0.00    +0.253 C 
ATOM      3  C   UNL     1      22.529  55.969  28.863  0.00  0.00    +0.082 C 
ATOM      4  C   UNL     1      21.463  55.274  28.007  0.00  0.00    +0.087 C 
ATOM      5  C   UNL     1      22.039  54.914  26.630  0.00  0.00    +0.160 C 
ATOM      6  C   UNL     1      22.647  56.165  25.979  0.00  0.00    +0.148 C 
ATOM      7  C   UNL     1      23.323  55.856  24.647  0.00  0.00    +0.041 C 
ATOM     13  O   UNL     1      23.638  56.751  26.833  0.00  0.00    -0.346 OA
BRANCH   4  10
ATOM     10  N   UNL     1      20.960  54.087  28.695  0.00  0.00    -0.325 NA
ATOM     11  H   UNL     1      21.672  53.358  28.690  0.00  0.00    +0.119 HD
ATOM     12  H   UNL     1      20.786  54.306  29.675  0.00  0.00    +0.119 HD
ENDBRANCH   4  10
BRANCH   5   8
ATOM      8  O   UNL     1      23.062  53.925  26.766  0.00  0.00    -0.388 OA
ATOM      9  H   UNL     1      23.756  54.126  26.116  0.00  0.00    +0.210 HD
ENDBRANCH   5   8
ENDBRANCH   1   2
ENDBRANCH  14   1
TORSDOF 9
ENDMDL
MODEL 5
REMARK VINA RESULT:    -8.120      3.273      8.530
REMARK INTER + INTRA:         -12.068
REMARK INTER:                 -11.036
REMARK INTRA:                  -1.032
REMARK UNBOUND:                -0.862
REMARK  Name = C:\Users\HP\Downloads\Anthraquinone_pdb\AD7.pdb
REMARK  12 active torsions:
REMARK  status: ('A' for Active; 'I' for Inactive)
REMARK    1  A    between atoms: O_1  and  C_12
REMARK    2  A    between atoms: O_1  and  C_18
REMARK    3  A    between atoms: O_3  and  C_13
REMARK    4  A    between atoms: O_4  and  C_21
REMARK    5  A    between atoms: O_5  and  C_23
REMARK    6  A    between atoms: O_6  and  C_25
REMARK    7  A    between atoms: O_10  and  C_34
REMARK    8  A    between atoms: O_10  and  C_38
REMARK    9  A    between atoms: N_11  and  C_20
REMARK   10  A    between atoms: C_13  and  C_24
REMARK   11  A    between atoms: C_22  and  C_28
REMARK   12  A    between atoms: C_24  and  C_29
REMARK                            x       y       z     vdW  Elec       q    Type
REMARK                         _______ _______ _______ _____ _____    ______ ____
ROOT
ATOM     14  C   UNL     1      22.628  57.553  27.947  0.00  0.00    +0.158 C 
ATOM     15  C   UNL     1      23.456  57.677  26.690  0.00  0.00    +0.030 A 
ATOM     16  C   UNL     1      24.440  58.677  26.621  0.00  0.00    +0.134 A 
ATOM     17  C   UNL     1      25.218  58.839  25.469  0.00  0.00    +0.078 A 
ATOM     18  C   UNL     1      26.250  59.896  25.427  0.00  0.00    +0.202 C 
ATOM     19  C   UNL     1      27.071  60.047  24.208  0.00  0.00    +0.075 A 
ATOM     20  C   UNL     1      28.056  61.041  24.156  0.00  0.00    +0.132 A 
ATOM     21  C   UNL     1      28.836  61.189  23.009  0.00  0.00    +0.046 A 
ATOM     22  C   UNL     1      28.637  60.350  21.914  0.00  0.00    +0.004 A 
ATOM     23  C   UNL     1      27.656  59.359  21.962  0.00  0.00    +0.012 A 
ATOM     26  C   UNL     1      26.870  59.206  23.111  0.00  0.00    +0.037 A 
ATOM     27  C   UNL     1      25.834  58.155  23.153  0.00  0.00    +0.198 C 
ATOM     28  O   UNL     1      25.654  57.422  22.189  0.00  0.00    -0.286 OA
ATOM     29  O   UNL     1      26.422  60.636  26.387  0.00  0.00    -0.286 OA
ATOM     30  C   UNL     1      25.017  58.002  24.374  0.00  0.00    +0.078 A 
ATOM     31  C   UNL     1      24.035  57.007  24.431  0.00  0.00    +0.132 A 
ATOM     36  C   UNL     1      23.242  56.843  25.580  0.00  0.00    +0.007 A 
ATOM     37  C   UNL     1      22.222  55.727  25.598  0.00  0.00    +0.082 C 
ATOM     38  C   UNL     1      21.205  55.833  26.738  0.00  0.00    +0.130 C 
ATOM     44  C   UNL     1      21.890  56.214  28.053  0.00  0.00    +0.079 C 
ENDROOT
BRANCH  38  39
ATOM     39  C   UNL     1      20.487  54.521  26.894  0.00  0.00    +0.162 C 
ATOM     40  C   UNL     1      20.198  54.072  28.300  0.00  0.00    +0.089 C 
ATOM     41  O   UNL     1      20.155  53.848  25.920  0.00  0.00    -0.295 OA
ENDBRANCH  38  39
BRANCH  20  24
ATOM     24  O   UNL     1      28.306  61.895  25.189  0.00  0.00    -0.494 OA
ATOM     25  C   UNL     1      29.167  62.999  24.921  0.00  0.00    +0.277 C 
ENDBRANCH  20  24
BRANCH  31  32
ATOM     32  O   UNL     1      23.826  56.160  23.377  0.00  0.00    -0.506 OA
ATOM     33  H   UNL     1      23.169  55.482  23.603  0.00  0.00    +0.292 HD
ENDBRANCH  31  32
BRANCH  16  34
ATOM     34  O   UNL     1      24.609  59.487  27.712  0.00  0.00    -0.506 OA
ATOM     35  H   UNL     1      23.824  60.038  27.849  0.00  0.00    +0.292 HD
ENDBRANCH  16  34
BRANCH  38  42
ATOM     42  O   UNL     1      20.192  56.779  26.426  0.00  0.00    -0.381 OA
ATOM     43  H   UNL     1      19.937  56.681  25.494  0.00  0.00    +0.211 HD
ENDBRANCH  38  42
BRANCH  14   1
ATOM      1  O   UNL     1      21.695  58.631  27.965  0.00  0.00    -0.343 OA
BRANCH   1   2
ATOM      2  C   UNL     1      21.616  59.222  29.260  0.00  0.00    +0.253 C 
ATOM      3  C   UNL     1      21.710  60.744  29.137  0.00  0.00    +0.082 C 
ATOM      4  C   UNL     1      20.434  61.318  28.509  0.00  0.00    +0.087 C 
ATOM      5  C   UNL     1      19.198  60.826  29.275  0.00  0.00    +0.160 C 
ATOM      6  C   UNL     1      19.219  59.292  29.360  0.00  0.00    +0.148 C 
ATOM      7  C   UNL     1      18.065  58.742  30.193  0.00  0.00    +0.041 C 
ATOM     13  O   UNL     1      20.435  58.833  29.965  0.00  0.00    -0.346 OA
BRANCH   4  10
ATOM     10  N   UNL     1      20.494  62.778  28.490  0.00  0.00    -0.325 NA
ATOM     11  H   UNL     1      20.595  63.106  27.530  0.00  0.00    +0.119 HD
ATOM     12  H   UNL     1      19.613  63.163  28.829  0.00  0.00    +0.119 HD
ENDBRANCH   4  10
BRANCH   5   8
ATOM      8  O   UNL     1      19.192  61.359  30.600  0.00  0.00    -0.388 OA
ATOM      9  H   UNL     1      20.112  61.380  30.915  0.00  0.00    +0.210 HD
ENDBRANCH   5   8
ENDBRANCH   1   2
ENDBRANCH  14   1
TORSDOF 9
ENDMDL
MODEL 6
REMARK VINA RESULT:    -8.031     18.465     21.077
REMARK INTER + INTRA:         -11.945
REMARK INTER:                 -10.815
REMARK INTRA:                  -1.130
REMARK UNBOUND:                -0.862
REMARK  Name = C:\Users\HP\Downloads\Anthraquinone_pdb\AD7.pdb
REMARK  12 active torsions:
REMARK  status: ('A' for Active; 'I' for Inactive)
REMARK    1  A    between atoms: O_1  and  C_12
REMARK    2  A    between atoms: O_1  and  C_18
REMARK    3  A    between atoms: O_3  and  C_13
REMARK    4  A    between atoms: O_4  and  C_21
REMARK    5  A    between atoms: O_5  and  C_23
REMARK    6  A    between atoms: O_6  and  C_25
REMARK    7  A    between atoms: O_10  and  C_34
REMARK    8  A    between atoms: O_10  and  C_38
REMARK    9  A    between atoms: N_11  and  C_20
REMARK   10  A    between atoms: C_13  and  C_24
REMARK   11  A    between atoms: C_22  and  C_28
REMARK   12  A    between atoms: C_24  and  C_29
REMARK                            x       y       z     vdW  Elec       q    Type
REMARK                         _______ _______ _______ _____ _____    ______ ____
ROOT
ATOM     14  C   UNL     1      14.820  39.701  20.017  0.00  0.00    +0.158 C 
ATOM     15  C   UNL     1      15.719  40.099  21.163  0.00  0.00    +0.030 A 
ATOM     16  C   UNL     1      16.019  39.149  22.153  0.00  0.00    +0.134 A 
ATOM     17  C   UNL     1      16.833  39.480  23.242  0.00  0.00    +0.078 A 
ATOM     18  C   UNL     1      17.136  38.458  24.266  0.00  0.00    +0.202 C 
ATOM     19  C   UNL     1      18.007  38.820  25.403  0.00  0.00    +0.075 A 
ATOM     20  C   UNL     1      18.307  37.860  26.377  0.00  0.00    +0.132 A 
ATOM     21  C   UNL     1      19.129  38.194  27.453  0.00  0.00    +0.046 A 
ATOM     22  C   UNL     1      19.652  39.481  27.562  0.00  0.00    +0.004 A 
ATOM     23  C   UNL     1      19.355  40.441  26.593  0.00  0.00    +0.012 A 
ATOM     26  C   UNL     1      18.530  40.110  25.511  0.00  0.00    +0.037 A 
ATOM     27  C   UNL     1      18.220  41.132  24.490  0.00  0.00    +0.198 C 
ATOM     28  O   UNL     1      18.674  42.265  24.588  0.00  0.00    -0.286 OA
ATOM     29  O   UNL     1      16.673  37.329  24.173  0.00  0.00    -0.286 OA
ATOM     30  C   UNL     1      17.354  40.767  23.351  0.00  0.00    +0.078 A 
ATOM     31  C   UNL     1      17.056  41.723  22.374  0.00  0.00    +0.132 A 
ATOM     36  C   UNL     1      16.231  41.402  21.281  0.00  0.00    +0.007 A 
ATOM     37  C   UNL     1      15.973  42.465  20.237  0.00  0.00    +0.082 C 
ATOM     38  C   UNL     1      14.825  42.130  19.280  0.00  0.00    +0.130 C 
ATOM     44  C   UNL     1      14.891  40.669  18.831  0.00  0.00    +0.079 C 
ENDROOT
BRANCH  38  39
ATOM     39  C   UNL     1      14.887  43.039  18.084  0.00  0.00    +0.162 C 
ATOM     40  C   UNL     1      16.237  43.602  17.733  0.00  0.00    +0.089 C 
ATOM     41  O   UNL     1      13.884  43.310  17.427  0.00  0.00    -0.295 OA
ENDBRANCH  38  39
BRANCH  20  24
ATOM     24  O   UNL     1      17.832  36.583  26.334  0.00  0.00    -0.494 OA
ATOM     25  C   UNL     1      18.798  35.534  26.326  0.00  0.00    +0.277 C 
ENDBRANCH  20  24
BRANCH  31  32
ATOM     32  O   UNL     1      17.566  42.990  22.446  0.00  0.00    -0.506 OA
ATOM     33  H   UNL     1      17.928  43.168  23.328  0.00  0.00    +0.292 HD
ENDBRANCH  31  32
BRANCH  16  34
ATOM     34  O   UNL     1      15.487  37.895  22.020  0.00  0.00    -0.506 OA
ATOM     35  H   UNL     1      15.935  37.272  22.612  0.00  0.00    +0.292 HD
ENDBRANCH  16  34
BRANCH  38  42
ATOM     42  O   UNL     1      13.567  42.396  19.887  0.00  0.00    -0.381 OA
ATOM     43  H   UNL     1      12.982  41.631  19.760  0.00  0.00    +0.211 HD
ENDBRANCH  38  42
BRANCH  14   1
ATOM      1  O   UNL     1      13.485  39.628  20.512  0.00  0.00    -0.343 OA
BRANCH   1   2
ATOM      2  C   UNL     1      12.652  38.871  19.639  0.00  0.00    +0.253 C 
ATOM      3  C   UNL     1      12.992  37.384  19.765  0.00  0.00    +0.082 C 
ATOM      4  C   UNL     1      12.522  36.833  21.117  0.00  0.00    +0.087 C 
ATOM      5  C   UNL     1      11.038  37.157  21.336  0.00  0.00    +0.160 C 
ATOM      6  C   UNL     1      10.807  38.666  21.161  0.00  0.00    +0.148 C 
ATOM      7  C   UNL     1       9.332  39.043  21.271  0.00  0.00    +0.041 C 
ATOM     13  O   UNL     1      11.261  39.103  19.873  0.00  0.00    -0.346 OA
BRANCH   4  10
ATOM     10  N   UNL     1      12.762  35.393  21.185  0.00  0.00    -0.325 NA
ATOM     11  H   UNL     1      13.006  35.040  20.261  0.00  0.00    +0.119 HD
ATOM     12  H   UNL     1      13.568  35.206  21.781  0.00  0.00    +0.119 HD
ENDBRANCH   4  10
BRANCH   5   8
ATOM      8  O   UNL     1      10.233  36.457  20.387  0.00  0.00    -0.388 OA
ATOM      9  H   UNL     1      10.382  36.862  19.516  0.00  0.00    +0.210 HD
ENDBRANCH   5   8
ENDBRANCH   1   2
ENDBRANCH  14   1
TORSDOF 9
ENDMDL
MODEL 7
REMARK VINA RESULT:    -7.936     18.330     19.703
REMARK INTER + INTRA:         -11.814
REMARK INTER:                 -10.764
REMARK INTRA:                  -1.050
REMARK UNBOUND:                -0.862
REMARK  Name = C:\Users\HP\Downloads\Anthraquinone_pdb\AD7.pdb
REMARK  12 active torsions:
REMARK  status: ('A' for Active; 'I' for Inactive)
REMARK    1  A    between atoms: O_1  and  C_12
REMARK    2  A    between atoms: O_1  and  C_18
REMARK    3  A    between atoms: O_3  and  C_13
REMARK    4  A    between atoms: O_4  and  C_21
REMARK    5  A    between atoms: O_5  and  C_23
REMARK    6  A    between atoms: O_6  and  C_25
REMARK    7  A    between atoms: O_10  and  C_34
REMARK    8  A    between atoms: O_10  and  C_38
REMARK    9  A    between atoms: N_11  and  C_20
REMARK   10  A    between atoms: C_13  and  C_24
REMARK   11  A    between atoms: C_22  and  C_28
REMARK   12  A    between atoms: C_24  and  C_29
REMARK                            x       y       z     vdW  Elec       q    Type
REMARK                         _______ _______ _______ _____ _____    ______ ____
ROOT
ATOM     14  C   UNL     1      13.541  40.897  21.491  0.00  0.00    +0.158 C 
ATOM     15  C   UNL     1      14.779  40.950  22.353  0.00  0.00    +0.030 A 
ATOM     16  C   UNL     1      14.822  40.183  23.530  0.00  0.00    +0.134 A 
ATOM     17  C   UNL     1      15.943  40.216  24.367  0.00  0.00    +0.078 A 
ATOM     18  C   UNL     1      15.962  39.396  25.596  0.00  0.00    +0.202 C 
ATOM     19  C   UNL     1      17.157  39.433  26.462  0.00  0.00    +0.075 A 
ATOM     20  C   UNL     1      17.191  38.656  27.627  0.00  0.00    +0.132 A 
ATOM     21  C   UNL     1      18.316  38.684  28.451  0.00  0.00    +0.046 A 
ATOM     22  C   UNL     1      19.408  39.485  28.117  0.00  0.00    +0.004 A 
ATOM     23  C   UNL     1      19.377  40.260  26.957  0.00  0.00    +0.012 A 
ATOM     26  C   UNL     1      18.250  40.235  26.128  0.00  0.00    +0.037 A 
ATOM     27  C   UNL     1      18.226  41.060  24.903  0.00  0.00    +0.198 C 
ATOM     28  O   UNL     1      19.181  41.768  24.613  0.00  0.00    -0.286 OA
ATOM     29  O   UNL     1      15.001  38.696  25.891  0.00  0.00    -0.286 OA
ATOM     30  C   UNL     1      17.032  41.018  24.034  0.00  0.00    +0.078 A 
ATOM     31  C   UNL     1      16.997  41.790  22.868  0.00  0.00    +0.132 A 
ATOM     36  C   UNL     1      15.872  41.771  22.026  0.00  0.00    +0.007 A 
ATOM     37  C   UNL     1      15.905  42.597  20.759  0.00  0.00    +0.082 C 
ATOM     38  C   UNL     1      14.537  42.764  20.090  0.00  0.00    +0.130 C 
ATOM     44  C   UNL     1      13.766  41.443  20.077  0.00  0.00    +0.079 C 
ENDROOT
BRANCH  38  39
ATOM     39  C   UNL     1      14.724  43.264  18.685  0.00  0.00    +0.162 C 
ATOM     40  C   UNL     1      16.136  43.547  18.250  0.00  0.00    +0.089 C 
ATOM     41  O   UNL     1      13.770  43.435  17.929  0.00  0.00    -0.295 OA
ENDBRANCH  38  39
BRANCH  20  24
ATOM     24  O   UNL     1      16.161  37.849  28.014  0.00  0.00    -0.494 OA
ATOM     25  C   UNL     1      15.693  37.997  29.352  0.00  0.00    +0.277 C 
ENDBRANCH  20  24
BRANCH  31  32
ATOM     32  O   UNL     1      18.058  42.574  22.507  0.00  0.00    -0.506 OA
ATOM     33  H   UNL     1      18.536  42.187  21.757  0.00  0.00    +0.292 HD
ENDBRANCH  31  32
BRANCH  16  34
ATOM     34  O   UNL     1      13.733  39.411  23.831  0.00  0.00    -0.506 OA
ATOM     35  H   UNL     1      13.377  39.651  24.700  0.00  0.00    +0.292 HD
ENDBRANCH  16  34
BRANCH  38  42
ATOM     42  O   UNL     1      13.773  43.767  20.746  0.00  0.00    -0.381 OA
ATOM     43  H   UNL     1      13.909  44.618  20.298  0.00  0.00    +0.211 HD
ENDBRANCH  38  42
BRANCH  14   1
ATOM      1  O   UNL     1      12.517  41.642  22.148  0.00  0.00    -0.343 OA
BRANCH   1   2
ATOM      2  C   UNL     1      11.272  40.951  22.110  0.00  0.00    +0.253 C 
ATOM      3  C   UNL     1      10.695  40.853  23.525  0.00  0.00    +0.082 C 
ATOM      4  C   UNL     1      10.217  42.226  24.012  0.00  0.00    +0.087 C 
ATOM      5  C   UNL     1       9.261  42.852  22.987  0.00  0.00    +0.160 C 
ATOM      6  C   UNL     1       9.930  42.876  21.604  0.00  0.00    +0.148 C 
ATOM      7  C   UNL     1       8.995  43.399  20.517  0.00  0.00    +0.041 C 
ATOM     13  O   UNL     1      10.339  41.559  21.214  0.00  0.00    -0.346 OA
BRANCH   4  10
ATOM     10  N   UNL     1       9.578  42.102  25.321  0.00  0.00    -0.325 NA
ATOM     11  H   UNL     1       8.565  42.084  25.209  0.00  0.00    +0.119 HD
ATOM     12  H   UNL     1       9.832  41.210  25.744  0.00  0.00    +0.119 HD
ENDBRANCH   4  10
BRANCH   5   8
ATOM      8  O   UNL     1       8.058  42.086  22.901  0.00  0.00    -0.388 OA
ATOM      9  H   UNL     1       7.794  42.053  21.966  0.00  0.00    +0.210 HD
ENDBRANCH   5   8
ENDBRANCH   1   2
ENDBRANCH  14   1
TORSDOF 9
ENDMDL
MODEL 8
REMARK VINA RESULT:    -7.867     23.138     25.953
REMARK INTER + INTRA:         -11.719
REMARK INTER:                 -10.627
REMARK INTRA:                  -1.092
REMARK UNBOUND:                -0.862
REMARK  Name = C:\Users\HP\Downloads\Anthraquinone_pdb\AD7.pdb
REMARK  12 active torsions:
REMARK  status: ('A' for Active; 'I' for Inactive)
REMARK    1  A    between atoms: O_1  and  C_12
REMARK    2  A    between atoms: O_1  and  C_18
REMARK    3  A    between atoms: O_3  and  C_13
REMARK    4  A    between atoms: O_4  and  C_21
REMARK    5  A    between atoms: O_5  and  C_23
REMARK    6  A    between atoms: O_6  and  C_25
REMARK    7  A    between atoms: O_10  and  C_34
REMARK    8  A    between atoms: O_10  and  C_38
REMARK    9  A    between atoms: N_11  and  C_20
REMARK   10  A    between atoms: C_13  and  C_24
REMARK   11  A    between atoms: C_22  and  C_28
REMARK   12  A    between atoms: C_24  and  C_29
REMARK                            x       y       z     vdW  Elec       q    Type
REMARK                         _______ _______ _______ _____ _____    ______ ____
ROOT
ATOM     14  C   UNL     1      24.649  62.137   6.174  0.00  0.00    +0.158 C 
ATOM     15  C   UNL     1      23.831  61.892   4.930  0.00  0.00    +0.030 A 
ATOM     16  C   UNL     1      23.523  60.570   4.568  0.00  0.00    +0.134 A 
ATOM     17  C   UNL     1      22.782  60.296   3.413  0.00  0.00    +0.078 A 
ATOM     18  C   UNL     1      22.470  58.896   3.060  0.00  0.00    +0.202 C 
ATOM     19  C   UNL     1      21.677  58.624   1.844  0.00  0.00    +0.075 A 
ATOM     20  C   UNL     1      21.368  57.302   1.500  0.00  0.00    +0.132 A 
ATOM     21  C   UNL     1      20.619  57.037   0.354  0.00  0.00    +0.046 A 
ATOM     22  C   UNL     1      20.176  58.086  -0.451  0.00  0.00    +0.004 A 
ATOM     23  C   UNL     1      20.482  59.404  -0.112  0.00  0.00    +0.012 A 
ATOM     26  C   UNL     1      21.234  59.675   1.038  0.00  0.00    +0.037 A 
ATOM     27  C   UNL     1      21.554  61.073   1.389  0.00  0.00    +0.198 C 
ATOM     28  O   UNL     1      21.171  61.994   0.679  0.00  0.00    -0.286 OA
ATOM     29  O   UNL     1      22.862  57.974   3.764  0.00  0.00    -0.286 OA
ATOM     30  C   UNL     1      22.343  61.344   2.608  0.00  0.00    +0.078 A 
ATOM     31  C   UNL     1      22.649  62.664   2.956  0.00  0.00    +0.132 A 
ATOM     36  C   UNL     1      23.401  62.949   4.109  0.00  0.00    +0.007 A 
ATOM     37  C   UNL     1      23.669  64.396   4.455  0.00  0.00    +0.082 C 
ATOM     38  C   UNL     1      24.750  64.589   5.524  0.00  0.00    +0.130 C 
ATOM     44  C   UNL     1      24.578  63.587   6.667  0.00  0.00    +0.079 C 
ENDROOT
BRANCH  38  39
ATOM     39  C   UNL     1      24.683  65.993   6.057  0.00  0.00    +0.162 C 
ATOM     40  C   UNL     1      25.440  66.271   7.326  0.00  0.00    +0.089 C 
ATOM     41  O   UNL     1      24.040  66.870   5.483  0.00  0.00    -0.295 OA
ENDBRANCH  38  39
BRANCH  20  24
ATOM     24  O   UNL     1      21.766  56.229   2.241  0.00  0.00    -0.494 OA
ATOM     25  C   UNL     1      21.138  54.980   1.960  0.00  0.00    +0.277 C 
ENDBRANCH  20  24
BRANCH  31  32
ATOM     32  O   UNL     1      22.217  63.714   2.193  0.00  0.00    -0.506 OA
ATOM     33  H   UNL     1      22.643  63.708   1.321  0.00  0.00    +0.292 HD
ENDBRANCH  31  32
BRANCH  16  34
ATOM     34  O   UNL     1      23.975  59.563   5.377  0.00  0.00    -0.506 OA
ATOM     35  H   UNL     1      23.244  59.185   5.889  0.00  0.00    +0.292 HD
ENDBRANCH  16  34
BRANCH  38  42
ATOM     42  O   UNL     1      26.048  64.464   4.959  0.00  0.00    -0.381 OA
ATOM     43  H   UNL     1      26.559  63.815   5.471  0.00  0.00    +0.211 HD
ENDBRANCH  38  42
BRANCH  14   1
ATOM      1  O   UNL     1      26.000  61.782   5.887  0.00  0.00    -0.343 OA
BRANCH   1   2
ATOM      2  C   UNL     1      26.662  61.291   7.050  0.00  0.00    +0.253 C 
ATOM      3  C   UNL     1      27.073  59.833   6.830  0.00  0.00    +0.082 C 
ATOM      4  C   UNL     1      28.221  59.740   5.818  0.00  0.00    +0.087 C 
ATOM      5  C   UNL     1      29.375  60.661   6.236  0.00  0.00    +0.160 C 
ATOM      6  C   UNL     1      28.847  62.087   6.454  0.00  0.00    +0.148 C 
ATOM      7  C   UNL     1      29.928  63.034   6.965  0.00  0.00    +0.041 C 
ATOM     13  O   UNL     1      27.786  62.094   7.418  0.00  0.00    -0.346 OA
BRANCH   4  10
ATOM     10  N   UNL     1      28.671  58.355   5.692  0.00  0.00    -0.325 NA
ATOM     11  H   UNL     1      27.971  57.809   5.191  0.00  0.00    +0.119 HD
ATOM     12  H   UNL     1      29.517  58.319   5.125  0.00  0.00    +0.119 HD
ENDBRANCH   4  10
BRANCH   5   8
ATOM      8  O   UNL     1      29.960  60.198   7.454  0.00  0.00    -0.388 OA
ATOM      9  H   UNL     1      30.605  60.864   7.745  0.00  0.00    +0.210 HD
ENDBRANCH   5   8
ENDBRANCH   1   2
ENDBRANCH  14   1
TORSDOF 9
ENDMDL
MODEL 9
REMARK VINA RESULT:    -7.749      3.402      5.811
REMARK INTER + INTRA:         -11.556
REMARK INTER:                 -10.361
REMARK INTRA:                  -1.195
REMARK UNBOUND:                -0.862
REMARK  Name = C:\Users\HP\Downloads\Anthraquinone_pdb\AD7.pdb
REMARK  12 active torsions:
REMARK  status: ('A' for Active; 'I' for Inactive)
REMARK    1  A    between atoms: O_1  and  C_12
REMARK    2  A    between atoms: O_1  and  C_18
REMARK    3  A    between atoms: O_3  and  C_13
REMARK    4  A    between atoms: O_4  and  C_21
REMARK    5  A    between atoms: O_5  and  C_23
REMARK    6  A    between atoms: O_6  and  C_25
REMARK    7  A    between atoms: O_10  and  C_34
REMARK    8  A    between atoms: O_10  and  C_38
REMARK    9  A    between atoms: N_11  and  C_20
REMARK   10  A    between atoms: C_13  and  C_24
REMARK   11  A    between atoms: C_22  and  C_28
REMARK   12  A    between atoms: C_24  and  C_29
REMARK                            x       y       z     vdW  Elec       q    Type
REMARK                         _______ _______ _______ _____ _____    ______ ____
ROOT
ATOM     14  C   UNL     1      22.552  58.613  27.809  0.00  0.00    +0.158 C 
ATOM     15  C   UNL     1      21.238  58.696  28.548  0.00  0.00    +0.030 A 
ATOM     16  C   UNL     1      20.883  59.906  29.168  0.00  0.00    +0.134 A 
ATOM     17  C   UNL     1      19.683  60.023  29.878  0.00  0.00    +0.078 A 
ATOM     18  C   UNL     1      19.333  61.309  30.516  0.00  0.00    +0.202 C 
ATOM     19  C   UNL     1      18.057  61.419  31.252  0.00  0.00    +0.075 A 
ATOM     20  C   UNL     1      17.710  62.634  31.856  0.00  0.00    +0.132 A 
ATOM     21  C   UNL     1      16.507  62.747  32.553  0.00  0.00    +0.046 A 
ATOM     22  C   UNL     1      15.649  61.652  32.649  0.00  0.00    +0.004 A 
ATOM     23  C   UNL     1      15.992  60.440  32.048  0.00  0.00    +0.012 A 
ATOM     26  C   UNL     1      17.198  60.323  31.348  0.00  0.00    +0.037 A 
ATOM     27  C   UNL     1      17.553  59.036  30.716  0.00  0.00    +0.198 C 
ATOM     28  O   UNL     1      16.803  58.072  30.806  0.00  0.00    -0.286 OA
ATOM     29  O   UNL     1      20.089  62.269  30.436  0.00  0.00    -0.286 OA
ATOM     30  C   UNL     1      18.827  58.928  29.976  0.00  0.00    +0.078 A 
ATOM     31  C   UNL     1      19.174  57.717  29.367  0.00  0.00    +0.132 A 
ATOM     36  C   UNL     1      20.382  57.588  28.660  0.00  0.00    +0.007 A 
ATOM     37  C   UNL     1      20.687  56.266  27.992  0.00  0.00    +0.082 C 
ATOM     38  C   UNL     1      22.142  56.123  27.534  0.00  0.00    +0.130 C 
ATOM     44  C   UNL     1      22.638  57.407  26.867  0.00  0.00    +0.079 C 
ENDROOT
BRANCH  38  39
ATOM     39  C   UNL     1      22.255  54.969  26.576  0.00  0.00    +0.162 C 
ATOM     40  C   UNL     1      21.317  53.814  26.796  0.00  0.00    +0.089 C 
ATOM     41  O   UNL     1      23.075  54.970  25.660  0.00  0.00    -0.295 OA
ENDBRANCH  38  39
BRANCH  20  24
ATOM     24  O   UNL     1      18.500  63.745  31.801  0.00  0.00    -0.494 OA
ATOM     25  C   UNL     1      18.287  64.738  32.801  0.00  0.00    +0.277 C 
ENDBRANCH  20  24
BRANCH  31  32
ATOM     32  O   UNL     1      18.346  56.630  29.433  0.00  0.00    -0.506 OA
ATOM     33  H   UNL     1      18.789  55.837  29.094  0.00  0.00    +0.292 HD
ENDBRANCH  31  32
BRANCH  16  34
ATOM     34  O   UNL     1      21.748  60.961  29.058  0.00  0.00    -0.506 OA
ATOM     35  H   UNL     1      21.274  61.761  28.788  0.00  0.00    +0.292 HD
ENDBRANCH  16  34
BRANCH  38  42
ATOM     42  O   UNL     1      22.986  55.786  28.627  0.00  0.00    -0.381 OA
ATOM     43  H   UNL     1      23.881  56.125  28.457  0.00  0.00    +0.211 HD
ENDBRANCH  38  42
BRANCH  14   1
ATOM      1  O   UNL     1      23.597  58.554  28.778  0.00  0.00    -0.343 OA
BRANCH   1   2
ATOM      2  C   UNL     1      24.878  58.616  28.158  0.00  0.00    +0.253 C 
ATOM      3  C   UNL     1      25.503  59.992  28.405  0.00  0.00    +0.082 C 
ATOM      4  C   UNL     1      25.915  60.144  29.874  0.00  0.00    +0.087 C 
ATOM      5  C   UNL     1      26.802  58.967  30.302  0.00  0.00    +0.160 C 
ATOM      6  C   UNL     1      26.092  57.642  29.986  0.00  0.00    +0.148 C 
ATOM      7  C   UNL     1      26.962  56.428  30.300  0.00  0.00    +0.041 C 
ATOM     13  O   UNL     1      25.747  57.569  28.597  0.00  0.00    -0.346 OA
BRANCH   4  10
ATOM     10  N   UNL     1      26.600  61.420  30.076  0.00  0.00    -0.325 NA
ATOM     11  H   UNL     1      27.608  61.272  30.085  0.00  0.00    +0.119 HD
ATOM     12  H   UNL     1      26.412  62.039  29.287  0.00  0.00    +0.119 HD
ENDBRANCH   4  10
BRANCH   5   8
ATOM      8  O   UNL     1      28.044  59.001  29.597  0.00  0.00    -0.388 OA
ATOM      9  H   UNL     1      28.413  58.102  29.603  0.00  0.00    +0.210 HD
ENDBRANCH   5   8
ENDBRANCH   1   2
ENDBRANCH  14   1
TORSDOF 9
ENDMDL
