MODEL 1
REMARK VINA RESULT:    -7.227      0.000      0.000
REMARK INTER + INTRA:          -7.649
REMARK INTER:                  -7.649
REMARK INTRA:                   0.000
REMARK UNBOUND:                 0.000
REMARK  Name = C:\Users\HP\Downloads\Anthraquinone_pdb\AD8.pdb
REMARK  3 active torsions:
REMARK  status: ('A' for Active; 'I' for Inactive)
REMARK    1  A    between atoms: O_1  and  C_11
REMARK    2  A    between atoms: O_3  and  C_14
REMARK    3  A    between atoms: C_12  and  C_17
REMARK                            x       y       z     vdW  Elec       q    Type
REMARK                         _______ _______ _______ _____ _____    ______ ____
ROOT
ATOM      3  C   UNL     1      22.840  56.134  24.837  0.00  0.00    +0.135 A 
ATOM      4  C   UNL     1      22.792  56.941  23.699  0.00  0.00    +0.033 A 
ATOM      5  C   UNL     1      24.059  57.369  23.027  0.00  0.00    +0.051 C 
ATOM      6  C   UNL     1      21.564  57.352  23.184  0.00  0.00    +0.124 A 
ATOM      7  C   UNL     1      20.379  56.958  23.805  0.00  0.00    +0.058 A 
ATOM      8  C   UNL     1      20.422  56.148  24.946  0.00  0.00    +0.040 A 
ATOM      9  C   UNL     1      19.161  55.736  25.597  0.00  0.00    +0.195 C 
ATOM     10  C   UNL     1      19.221  54.883  26.801  0.00  0.00    +0.033 A 
ATOM     11  C   UNL     1      18.033  54.486  27.427  0.00  0.00    +0.012 A 
ATOM     12  C   UNL     1      18.081  53.680  28.565  0.00  0.00    +0.001 A 
ATOM     13  C   UNL     1      19.308  53.270  29.081  0.00  0.00    +0.001 A 
ATOM     14  C   UNL     1      20.494  53.663  28.459  0.00  0.00    +0.012 A 
ATOM     15  C   UNL     1      20.452  54.472  27.317  0.00  0.00    +0.033 A 
ATOM     16  C   UNL     1      21.712  54.882  26.666  0.00  0.00    +0.198 C 
ATOM     17  O   UNL     1      22.777  54.506  27.139  0.00  0.00    -0.286 OA
ATOM     18  O   UNL     1      18.081  56.098  25.145  0.00  0.00    -0.287 OA
ATOM     21  C   UNL     1      21.652  55.736  25.462  0.00  0.00    +0.075 A 
ENDROOT
BRANCH   3   1
ATOM      1  O   UNL     1      24.065  55.758  25.304  0.00  0.00    -0.506 OA
ATOM      2  H   UNL     1      24.691  55.565  24.590  0.00  0.00    +0.292 HD
ENDBRANCH   3   1
BRANCH   6  19
ATOM     19  O   UNL     1      21.502  58.140  22.074  0.00  0.00    -0.506 OA
ATOM     20  H   UNL     1      21.153  59.013  22.323  0.00  0.00    +0.292 HD
ENDBRANCH   6  19
TORSDOF 2
ENDMDL
MODEL 2
REMARK VINA RESULT:    -7.216      0.909      2.956
REMARK INTER + INTRA:          -7.638
REMARK INTER:                  -7.638
REMARK INTRA:                   0.000
REMARK UNBOUND:                 0.000
REMARK  Name = C:\Users\HP\Downloads\Anthraquinone_pdb\AD8.pdb
REMARK  3 active torsions:
REMARK  status: ('A' for Active; 'I' for Inactive)
REMARK    1  A    between atoms: O_1  and  C_11
REMARK    2  A    between atoms: O_3  and  C_14
REMARK    3  A    between atoms: C_12  and  C_17
REMARK                            x       y       z     vdW  Elec       q    Type
REMARK                         _______ _______ _______ _____ _____    ______ ____
ROOT
ATOM      3  C   UNL     1      20.554  57.048  24.019  0.00  0.00    +0.135 A 
ATOM      4  C   UNL     1      21.775  57.464  23.486  0.00  0.00    +0.033 A 
ATOM      5  C   UNL     1      21.807  58.390  22.311  0.00  0.00    +0.051 C 
ATOM      6  C   UNL     1      22.971  57.019  24.046  0.00  0.00    +0.124 A 
ATOM      7  C   UNL     1      22.951  56.155  25.142  0.00  0.00    +0.058 A 
ATOM      8  C   UNL     1      21.728  55.736  25.679  0.00  0.00    +0.040 A 
ATOM      9  C   UNL     1      21.717  54.820  26.839  0.00  0.00    +0.195 C 
ATOM     10  C   UNL     1      20.421  54.384  27.396  0.00  0.00    +0.033 A 
ATOM     11  C   UNL     1      20.397  53.516  28.495  0.00  0.00    +0.012 A 
ATOM     12  C   UNL     1      19.176  53.099  29.027  0.00  0.00    +0.001 A 
ATOM     13  C   UNL     1      17.981  53.543  28.466  0.00  0.00    +0.001 A 
ATOM     14  C   UNL     1      18.001  54.408  27.372  0.00  0.00    +0.012 A 
ATOM     15  C   UNL     1      19.223  54.830  26.834  0.00  0.00    +0.033 A 
ATOM     16  C   UNL     1      19.233  55.746  25.675  0.00  0.00    +0.198 C 
ATOM     17  O   UNL     1      18.168  56.122  25.204  0.00  0.00    -0.286 OA
ATOM     18  O   UNL     1      22.768  54.428  27.332  0.00  0.00    -0.287 OA
ATOM     21  C   UNL     1      20.531  56.181  25.119  0.00  0.00    +0.075 A 
ENDROOT
BRANCH   3   1
ATOM      1  O   UNL     1      19.410  57.509  23.436  0.00  0.00    -0.506 OA
ATOM      2  H   UNL     1      19.050  56.889  22.784  0.00  0.00    +0.292 HD
ENDBRANCH   3   1
BRANCH   6  19
ATOM     19  O   UNL     1      24.170  57.417  23.537  0.00  0.00    -0.506 OA
ATOM     20  H   UNL     1      24.446  56.791  22.845  0.00  0.00    +0.292 HD
ENDBRANCH   6  19
TORSDOF 2
ENDMDL
MODEL 3
REMARK VINA RESULT:    -6.885     15.075     16.467
REMARK INTER + INTRA:          -7.288
REMARK INTER:                  -7.288
REMARK INTRA:                   0.000
REMARK UNBOUND:                 0.000
REMARK  Name = C:\Users\HP\Downloads\Anthraquinone_pdb\AD8.pdb
REMARK  3 active torsions:
REMARK  status: ('A' for Active; 'I' for Inactive)
REMARK    1  A    between atoms: O_1  and  C_11
REMARK    2  A    between atoms: O_3  and  C_14
REMARK    3  A    between atoms: C_12  and  C_17
REMARK                            x       y       z     vdW  Elec       q    Type
REMARK                         _______ _______ _______ _____ _____    ______ ____
ROOT
ATOM      3  C   UNL     1      15.942  41.358  20.499  0.00  0.00    +0.135 A 
ATOM      4  C   UNL     1      15.019  40.798  19.615  0.00  0.00    +0.033 A 
ATOM      5  C   UNL     1      14.971  41.253  18.190  0.00  0.00    +0.051 C 
ATOM      6  C   UNL     1      14.138  39.812  20.055  0.00  0.00    +0.124 A 
ATOM      7  C   UNL     1      14.175  39.382  21.382  0.00  0.00    +0.058 A 
ATOM      8  C   UNL     1      15.100  39.941  22.272  0.00  0.00    +0.040 A 
ATOM      9  C   UNL     1      15.132  39.479  23.675  0.00  0.00    +0.195 C 
ATOM     10  C   UNL     1      16.111  40.078  24.605  0.00  0.00    +0.033 A 
ATOM     11  C   UNL     1      16.151  39.649  25.937  0.00  0.00    +0.012 A 
ATOM     12  C   UNL     1      17.073  40.210  26.822  0.00  0.00    +0.001 A 
ATOM     13  C   UNL     1      17.954  41.196  26.383  0.00  0.00    +0.001 A 
ATOM     14  C   UNL     1      17.917  41.625  25.055  0.00  0.00    +0.012 A 
ATOM     15  C   UNL     1      16.994  41.066  24.163  0.00  0.00    +0.033 A 
ATOM     16  C   UNL     1      16.963  41.527  22.761  0.00  0.00    +0.198 C 
ATOM     17  O   UNL     1      17.750  42.393  22.401  0.00  0.00    -0.286 OA
ATOM     18  O   UNL     1      14.356  38.614  24.063  0.00  0.00    -0.287 OA
ATOM     21  C   UNL     1      15.983  40.928  21.831  0.00  0.00    +0.075 A 
ENDROOT
BRANCH   3   1
ATOM      1  O   UNL     1      16.784  42.320  20.023  0.00  0.00    -0.506 OA
ATOM      2  H   UNL     1      17.165  42.086  19.163  0.00  0.00    +0.292 HD
ENDBRANCH   3   1
BRANCH   6  19
ATOM     19  O   UNL     1      13.231  39.257  19.203  0.00  0.00    -0.506 OA
ATOM     20  H   UNL     1      12.584  39.934  18.941  0.00  0.00    +0.292 HD
ENDBRANCH   6  19
TORSDOF 2
ENDMDL
MODEL 4
REMARK VINA RESULT:    -6.546     15.145     15.299
REMARK INTER + INTRA:          -6.928
REMARK INTER:                  -6.928
REMARK INTRA:                   0.000
REMARK UNBOUND:                 0.000
REMARK  Name = C:\Users\HP\Downloads\Anthraquinone_pdb\AD8.pdb
REMARK  3 active torsions:
REMARK  status: ('A' for Active; 'I' for Inactive)
REMARK    1  A    between atoms: O_1  and  C_11
REMARK    2  A    between atoms: O_3  and  C_14
REMARK    3  A    between atoms: C_12  and  C_17
REMARK                            x       y       z     vdW  Elec       q    Type
REMARK                         _______ _______ _______ _____ _____    ______ ____
ROOT
ATOM      3  C   UNL     1      15.555  42.878  19.682  0.00  0.00    +0.135 A 
ATOM      4  C   UNL     1      14.751  43.615  18.811  0.00  0.00    +0.033 A 
ATOM      5  C   UNL     1      15.269  44.017  17.466  0.00  0.00    +0.051 C 
ATOM      6  C   UNL     1      13.461  43.982  19.191  0.00  0.00    +0.124 A 
ATOM      7  C   UNL     1      12.970  43.612  20.444  0.00  0.00    +0.058 A 
ATOM      8  C   UNL     1      13.773  42.872  21.319  0.00  0.00    +0.040 A 
ATOM      9  C   UNL     1      13.244  42.486  22.644  0.00  0.00    +0.195 C 
ATOM     10  C   UNL     1      14.102  41.706  23.559  0.00  0.00    +0.033 A 
ATOM     11  C   UNL     1      13.612  41.334  24.817  0.00  0.00    +0.012 A 
ATOM     12  C   UNL     1      14.416  40.597  25.688  0.00  0.00    +0.001 A 
ATOM     13  C   UNL     1      15.706  40.232  25.308  0.00  0.00    +0.001 A 
ATOM     14  C   UNL     1      16.197  40.600  24.055  0.00  0.00    +0.012 A 
ATOM     15  C   UNL     1      15.394  41.339  23.178  0.00  0.00    +0.033 A 
ATOM     16  C   UNL     1      15.923  41.724  21.854  0.00  0.00    +0.198 C 
ATOM     17  O   UNL     1      17.059  41.388  21.545  0.00  0.00    -0.286 OA
ATOM     18  O   UNL     1      12.110  42.808  22.979  0.00  0.00    -0.287 OA
ATOM     21  C   UNL     1      15.064  42.505  20.939  0.00  0.00    +0.075 A 
ENDROOT
BRANCH   3   1
ATOM      1  O   UNL     1      16.810  42.543  19.265  0.00  0.00    -0.506 OA
ATOM      2  H   UNL     1      16.939  41.584  19.211  0.00  0.00    +0.292 HD
ENDBRANCH   3   1
BRANCH   6  19
ATOM     19  O   UNL     1      12.665  44.702  18.352  0.00  0.00    -0.506 OA
ATOM     20  H   UNL     1      12.296  45.461  18.836  0.00  0.00    +0.292 HD
ENDBRANCH   6  19
TORSDOF 2
ENDMDL
MODEL 5
REMARK VINA RESULT:    -6.493     15.345     16.639
REMARK INTER + INTRA:          -6.873
REMARK INTER:                  -6.873
REMARK INTRA:                   0.000
REMARK UNBOUND:                 0.000
REMARK  Name = C:\Users\HP\Downloads\Anthraquinone_pdb\AD8.pdb
REMARK  3 active torsions:
REMARK  status: ('A' for Active; 'I' for Inactive)
REMARK    1  A    between atoms: O_1  and  C_11
REMARK    2  A    between atoms: O_3  and  C_14
REMARK    3  A    between atoms: C_12  and  C_17
REMARK                            x       y       z     vdW  Elec       q    Type
REMARK                         _______ _______ _______ _____ _____    ______ ____
ROOT
ATOM      3  C   UNL     1      15.339  40.310  20.357  0.00  0.00    +0.135 A 
ATOM      4  C   UNL     1      15.430  41.525  19.678  0.00  0.00    +0.033 A 
ATOM      5  C   UNL     1      14.831  41.672  18.314  0.00  0.00    +0.051 C 
ATOM      6  C   UNL     1      16.082  42.608  20.265  0.00  0.00    +0.124 A 
ATOM      7  C   UNL     1      16.645  42.480  21.535  0.00  0.00    +0.058 A 
ATOM      8  C   UNL     1      16.554  41.263  22.221  0.00  0.00    +0.040 A 
ATOM      9  C   UNL     1      17.153  41.137  23.566  0.00  0.00    +0.195 C 
ATOM     10  C   UNL     1      17.053  39.846  24.278  0.00  0.00    +0.033 A 
ATOM     11  C   UNL     1      17.616  39.714  25.552  0.00  0.00    +0.012 A 
ATOM     12  C   UNL     1      17.526  38.499  26.232  0.00  0.00    +0.001 A 
ATOM     13  C   UNL     1      16.876  37.416  25.644  0.00  0.00    +0.001 A 
ATOM     14  C   UNL     1      16.312  37.544  24.374  0.00  0.00    +0.012 A 
ATOM     15  C   UNL     1      16.400  38.762  23.688  0.00  0.00    +0.033 A 
ATOM     16  C   UNL     1      15.800  38.887  22.344  0.00  0.00    +0.198 C 
ATOM     17  O   UNL     1      15.233  37.921  21.852  0.00  0.00    -0.286 OA
ATOM     18  O   UNL     1      17.727  42.088  24.083  0.00  0.00    -0.287 OA
ATOM     21  C   UNL     1      15.902  40.178  21.633  0.00  0.00    +0.075 A 
ENDROOT
BRANCH   3   1
ATOM      1  O   UNL     1      14.693  39.279  19.741  0.00  0.00    -0.506 OA
ATOM      2  H   UNL     1      14.216  39.562  18.946  0.00  0.00    +0.292 HD
ENDBRANCH   3   1
BRANCH   6  19
ATOM     19  O   UNL     1      16.180  43.801  19.613  0.00  0.00    -0.506 OA
ATOM     20  H   UNL     1      17.009  43.819  19.106  0.00  0.00    +0.292 HD
ENDBRANCH   6  19
TORSDOF 2
ENDMDL
MODEL 6
REMARK VINA RESULT:    -6.420     18.379     20.428
REMARK INTER + INTRA:          -6.795
REMARK INTER:                  -6.795
REMARK INTRA:                   0.000
REMARK UNBOUND:                 0.000
REMARK  Name = C:\Users\HP\Downloads\Anthraquinone_pdb\AD8.pdb
REMARK  3 active torsions:
REMARK  status: ('A' for Active; 'I' for Inactive)
REMARK    1  A    between atoms: O_1  and  C_11
REMARK    2  A    between atoms: O_3  and  C_14
REMARK    3  A    between atoms: C_12  and  C_17
REMARK                            x       y       z     vdW  Elec       q    Type
REMARK                         _______ _______ _______ _____ _____    ______ ____
ROOT
ATOM      3  C   UNL     1      22.004  47.902   7.398  0.00  0.00    +0.135 A 
ATOM      4  C   UNL     1      21.687  49.175   7.872  0.00  0.00    +0.033 A 
ATOM      5  C   UNL     1      20.364  49.793   7.545  0.00  0.00    +0.051 C 
ATOM      6  C   UNL     1      22.602  49.878   8.654  0.00  0.00    +0.124 A 
ATOM      7  C   UNL     1      23.838  49.310   8.964  0.00  0.00    +0.058 A 
ATOM      8  C   UNL     1      24.159  48.032   8.490  0.00  0.00    +0.040 A 
ATOM      9  C   UNL     1      25.471  47.439   8.824  0.00  0.00    +0.195 C 
ATOM     10  C   UNL     1      25.798  46.091   8.317  0.00  0.00    +0.033 A 
ATOM     11  C   UNL     1      27.038  45.518   8.626  0.00  0.00    +0.012 A 
ATOM     12  C   UNL     1      27.355  44.245   8.151  0.00  0.00    +0.001 A 
ATOM     13  C   UNL     1      26.440  43.543   7.369  0.00  0.00    +0.001 A 
ATOM     14  C   UNL     1      25.204  44.110   7.059  0.00  0.00    +0.012 A 
ATOM     15  C   UNL     1      24.881  45.387   7.534  0.00  0.00    +0.033 A 
ATOM     16  C   UNL     1      23.569  45.979   7.201  0.00  0.00    +0.198 C 
ATOM     17  O   UNL     1      22.784  45.340   6.514  0.00  0.00    -0.286 OA
ATOM     18  O   UNL     1      26.277  48.057   9.510  0.00  0.00    -0.287 OA
ATOM     21  C   UNL     1      23.243  47.328   7.708  0.00  0.00    +0.075 A 
ENDROOT
BRANCH   3   1
ATOM      1  O   UNL     1      21.076  47.253   6.636  0.00  0.00    -0.506 OA
ATOM      2  H   UNL     1      20.202  47.233   7.054  0.00  0.00    +0.292 HD
ENDBRANCH   3   1
BRANCH   6  19
ATOM     19  O   UNL     1      22.307  51.123   9.123  0.00  0.00    -0.506 OA
ATOM     20  H   UNL     1      21.575  51.495   8.602  0.00  0.00    +0.292 HD
ENDBRANCH   6  19
TORSDOF 2
ENDMDL
MODEL 7
REMARK VINA RESULT:    -6.408      9.716     11.192
REMARK INTER + INTRA:          -6.783
REMARK INTER:                  -6.783
REMARK INTRA:                   0.000
REMARK UNBOUND:                 0.000
REMARK  Name = C:\Users\HP\Downloads\Anthraquinone_pdb\AD8.pdb
REMARK  3 active torsions:
REMARK  status: ('A' for Active; 'I' for Inactive)
REMARK    1  A    between atoms: O_1  and  C_11
REMARK    2  A    between atoms: O_3  and  C_14
REMARK    3  A    between atoms: C_12  and  C_17
REMARK                            x       y       z     vdW  Elec       q    Type
REMARK                         _______ _______ _______ _____ _____    ______ ____
ROOT
ATOM      3  C   UNL     1      15.645  63.036  33.773  0.00  0.00    +0.135 A 
ATOM      4  C   UNL     1      16.040  64.231  34.375  0.00  0.00    +0.033 A 
ATOM      5  C   UNL     1      15.063  65.024  35.185  0.00  0.00    +0.051 C 
ATOM      6  C   UNL     1      17.346  64.692  34.225  0.00  0.00    +0.124 A 
ATOM      7  C   UNL     1      18.264  63.959  33.471  0.00  0.00    +0.058 A 
ATOM      8  C   UNL     1      17.872  62.760  32.866  0.00  0.00    +0.040 A 
ATOM      9  C   UNL     1      18.851  61.991  32.069  0.00  0.00    +0.195 C 
ATOM     10  C   UNL     1      18.424  60.727  31.434  0.00  0.00    +0.033 A 
ATOM     11  C   UNL     1      19.342  59.990  30.677  0.00  0.00    +0.012 A 
ATOM     12  C   UNL     1      18.947  58.795  30.074  0.00  0.00    +0.001 A 
ATOM     13  C   UNL     1      17.641  58.335  30.223  0.00  0.00    +0.001 A 
ATOM     14  C   UNL     1      16.723  59.067  30.978  0.00  0.00    +0.012 A 
ATOM     15  C   UNL     1      17.115  60.266  31.585  0.00  0.00    +0.033 A 
ATOM     16  C   UNL     1      16.136  61.033  32.382  0.00  0.00    +0.198 C 
ATOM     17  O   UNL     1      14.996  60.605  32.499  0.00  0.00    -0.286 OA
ATOM     18  O   UNL     1      19.999  62.396  31.936  0.00  0.00    -0.287 OA
ATOM     21  C   UNL     1      16.564  62.298  33.016  0.00  0.00    +0.075 A 
ENDROOT
BRANCH   3   1
ATOM      1  O   UNL     1      14.356  62.626  33.948  0.00  0.00    -0.506 OA
ATOM      2  H   UNL     1      14.268  61.661  33.931  0.00  0.00    +0.292 HD
ENDBRANCH   3   1
BRANCH   6  19
ATOM     19  O   UNL     1      17.746  65.858  34.807  0.00  0.00    -0.506 OA
ATOM     20  H   UNL     1      16.997  66.246  35.290  0.00  0.00    +0.292 HD
ENDBRANCH   6  19
TORSDOF 2
ENDMDL
MODEL 8
REMARK VINA RESULT:    -6.393     15.983     17.721
REMARK INTER + INTRA:          -6.767
REMARK INTER:                  -6.767
REMARK INTRA:                   0.000
REMARK UNBOUND:                 0.000
REMARK  Name = C:\Users\HP\Downloads\Anthraquinone_pdb\AD8.pdb
REMARK  3 active torsions:
REMARK  status: ('A' for Active; 'I' for Inactive)
REMARK    1  A    between atoms: O_1  and  C_11
REMARK    2  A    between atoms: O_3  and  C_14
REMARK    3  A    between atoms: C_12  and  C_17
REMARK                            x       y       z     vdW  Elec       q    Type
REMARK                         _______ _______ _______ _____ _____    ______ ____
ROOT
ATOM      3  C   UNL     1      14.895  38.340  21.871  0.00  0.00    +0.135 A 
ATOM      4  C   UNL     1      15.316  37.991  23.155  0.00  0.00    +0.033 A 
ATOM      5  C   UNL     1      14.942  36.664  23.735  0.00  0.00    +0.051 C 
ATOM      6  C   UNL     1      16.088  38.878  23.903  0.00  0.00    +0.124 A 
ATOM      7  C   UNL     1      16.441  40.118  23.370  0.00  0.00    +0.058 A 
ATOM      8  C   UNL     1      16.021  40.472  22.083  0.00  0.00    +0.040 A 
ATOM      9  C   UNL     1      16.400  41.788  21.527  0.00  0.00    +0.195 C 
ATOM     10  C   UNL     1      15.949  42.149  20.168  0.00  0.00    +0.033 A 
ATOM     11  C   UNL     1      16.301  43.393  19.630  0.00  0.00    +0.012 A 
ATOM     12  C   UNL     1      15.879  43.743  18.347  0.00  0.00    +0.001 A 
ATOM     13  C   UNL     1      15.107  42.856  17.599  0.00  0.00    +0.001 A 
ATOM     14  C   UNL     1      14.754  41.615  18.132  0.00  0.00    +0.012 A 
ATOM     15  C   UNL     1      15.175  41.260  19.419  0.00  0.00    +0.033 A 
ATOM     16  C   UNL     1      14.797  39.944  19.973  0.00  0.00    +0.198 C 
ATOM     17  O   UNL     1      14.120  39.184  19.294  0.00  0.00    -0.286 OA
ATOM     18  O   UNL     1      17.078  42.569  22.184  0.00  0.00    -0.287 OA
ATOM     21  C   UNL     1      15.248  39.584  21.333  0.00  0.00    +0.075 A 
ENDROOT
BRANCH   3   1
ATOM      1  O   UNL     1      14.140  37.439  21.178  0.00  0.00    -0.506 OA
ATOM      2  H   UNL     1      13.248  37.769  20.991  0.00  0.00    +0.292 HD
ENDBRANCH   3   1
BRANCH   6  19
ATOM     19  O   UNL     1      16.506  38.552  25.158  0.00  0.00    -0.506 OA
ATOM     20  H   UNL     1      16.755  39.363  25.632  0.00  0.00    +0.292 HD
ENDBRANCH   6  19
TORSDOF 2
ENDMDL
MODEL 9
REMARK VINA RESULT:    -6.373     26.081     28.021
REMARK INTER + INTRA:          -6.746
REMARK INTER:                  -6.746
REMARK INTRA:                   0.000
REMARK UNBOUND:                 0.000
REMARK  Name = C:\Users\HP\Downloads\Anthraquinone_pdb\AD8.pdb
REMARK  3 active torsions:
REMARK  status: ('A' for Active; 'I' for Inactive)
REMARK    1  A    between atoms: O_1  and  C_11
REMARK    2  A    between atoms: O_3  and  C_14
REMARK    3  A    between atoms: C_12  and  C_17
REMARK                            x       y       z     vdW  Elec       q    Type
REMARK                         _______ _______ _______ _____ _____    ______ ____
ROOT
ATOM      3  C   UNL     1      19.700  72.335   2.565  0.00  0.00    +0.135 A 
ATOM      4  C   UNL     1      20.274  72.689   3.787  0.00  0.00    +0.033 A 
ATOM      5  C   UNL     1      21.356  73.721   3.838  0.00  0.00    +0.051 C 
ATOM      6  C   UNL     1      19.843  72.082   4.965  0.00  0.00    +0.124 A 
ATOM      7  C   UNL     1      18.835  71.118   4.926  0.00  0.00    +0.058 A 
ATOM      8  C   UNL     1      18.256  70.760   3.703  0.00  0.00    +0.040 A 
ATOM      9  C   UNL     1      17.189  69.738   3.673  0.00  0.00    +0.195 C 
ATOM     10  C   UNL     1      16.588  69.368   2.375  0.00  0.00    +0.033 A 
ATOM     11  C   UNL     1      15.576  68.401   2.333  0.00  0.00    +0.012 A 
ATOM     12  C   UNL     1      15.003  68.046   1.112  0.00  0.00    +0.001 A 
ATOM     13  C   UNL     1      15.434  68.652  -0.067  0.00  0.00    +0.001 A 
ATOM     14  C   UNL     1      16.442  69.617  -0.028  0.00  0.00    +0.012 A 
ATOM     15  C   UNL     1      17.020  69.977   1.195  0.00  0.00    +0.033 A 
ATOM     16  C   UNL     1      18.086  70.999   1.225  0.00  0.00    +0.198 C 
ATOM     17  O   UNL     1      18.445  71.517   0.176  0.00  0.00    -0.286 OA
ATOM     18  O   UNL     1      16.810  69.204   4.708  0.00  0.00    -0.287 OA
ATOM     21  C   UNL     1      18.688  71.368   2.523  0.00  0.00    +0.075 A 
ENDROOT
BRANCH   3   1
ATOM      1  O   UNL     1      20.156  72.955   1.439  0.00  0.00    -0.506 OA
ATOM      2  H   UNL     1      19.690  72.664   0.641  0.00  0.00    +0.292 HD
ENDBRANCH   3   1
BRANCH   6  19
ATOM     19  O   UNL     1      20.395  72.418   6.165  0.00  0.00    -0.506 OA
ATOM     20  H   UNL     1      20.601  71.606   6.659  0.00  0.00    +0.292 HD
ENDBRANCH   6  19
TORSDOF 2
ENDMDL
