MODEL 1
REMARK VINA RESULT:    -7.224      0.000      0.000
REMARK INTER + INTRA:          -7.646
REMARK INTER:                  -7.646
REMARK INTRA:                   0.000
REMARK UNBOUND:                 0.000
REMARK  Name = C:\Users\HP\Downloads\Anthraquinone_pdb\AD9.pdb
REMARK  2 active torsions:
REMARK  status: ('A' for Active; 'I' for Inactive)
REMARK    1  A    between atoms: O_1  and  C_11
REMARK    2  A    between atoms: O_4  and  C_15
REMARK                            x       y       z     vdW  Elec       q    Type
REMARK                         _______ _______ _______ _____ _____    ______ ____
ROOT
ATOM      3  C   UNL     1      20.878  57.082  23.888  0.00  0.00    +0.170 A 
ATOM      4  C   UNL     1      22.132  57.414  23.376  0.00  0.00    +0.159 A 
ATOM      5  C   UNL     1      23.287  56.915  23.975  0.00  0.00    +0.050 A 
ATOM      6  C   UNL     1      23.192  56.080  25.088  0.00  0.00    +0.016 A 
ATOM      7  C   UNL     1      21.936  55.743  25.606  0.00  0.00    +0.037 A 
ATOM      8  C   UNL     1      21.846  54.860  26.787  0.00  0.00    +0.195 C 
ATOM      9  C   UNL     1      20.513  54.513  27.322  0.00  0.00    +0.033 A 
ATOM     10  C   UNL     1      20.414  53.676  28.440  0.00  0.00    +0.012 A 
ATOM     11  C   UNL     1      19.161  53.344  28.953  0.00  0.00    +0.001 A 
ATOM     12  C   UNL     1      18.006  53.843  28.354  0.00  0.00    +0.001 A 
ATOM     13  C   UNL     1      18.100  54.676  27.239  0.00  0.00    +0.012 A 
ATOM     14  C   UNL     1      19.357  55.013  26.721  0.00  0.00    +0.033 A 
ATOM     15  C   UNL     1      19.447  55.896  25.541  0.00  0.00    +0.198 C 
ATOM     16  O   UNL     1      18.415  56.320  25.033  0.00  0.00    -0.286 OA
ATOM     17  O   UNL     1      22.861  54.422  27.313  0.00  0.00    -0.287 OA
ATOM     20  C   UNL     1      20.778  56.244  25.005  0.00  0.00    +0.078 A 
ENDROOT
BRANCH   3   1
ATOM      1  O   UNL     1      19.780  57.598  23.264  0.00  0.00    -0.503 OA
ATOM      2  H   UNL     1      19.509  57.040  22.519  0.00  0.00    +0.292 HD
ENDBRANCH   3   1
BRANCH   4  18
ATOM     18  O   UNL     1      22.246  58.229  22.288  0.00  0.00    -0.503 OA
ATOM     19  H   UNL     1      21.877  57.762  21.518  0.00  0.00    +0.292 HD
ENDBRANCH   4  18
TORSDOF 2
ENDMDL
MODEL 2
REMARK VINA RESULT:    -7.190      3.157      5.040
REMARK INTER + INTRA:          -7.611
REMARK INTER:                  -7.611
REMARK INTRA:                   0.000
REMARK UNBOUND:                 0.000
REMARK  Name = C:\Users\HP\Downloads\Anthraquinone_pdb\AD9.pdb
REMARK  2 active torsions:
REMARK  status: ('A' for Active; 'I' for Inactive)
REMARK    1  A    between atoms: O_1  and  C_11
REMARK    2  A    between atoms: O_4  and  C_15
REMARK                            x       y       z     vdW  Elec       q    Type
REMARK                         _______ _______ _______ _____ _____    ______ ____
ROOT
ATOM      3  C   UNL     1      19.266  54.762  25.642  0.00  0.00    +0.170 A 
ATOM      4  C   UNL     1      18.509  53.761  25.034  0.00  0.00    +0.159 A 
ATOM      5  C   UNL     1      17.219  53.488  25.486  0.00  0.00    +0.050 A 
ATOM      6  C   UNL     1      16.680  54.216  26.547  0.00  0.00    +0.016 A 
ATOM      7  C   UNL     1      17.437  55.222  27.160  0.00  0.00    +0.037 A 
ATOM      8  C   UNL     1      16.859  55.987  28.285  0.00  0.00    +0.195 C 
ATOM      9  C   UNL     1      17.669  57.045  28.922  0.00  0.00    +0.033 A 
ATOM     10  C   UNL     1      17.132  57.777  29.988  0.00  0.00    +0.012 A 
ATOM     11  C   UNL     1      17.890  58.778  30.597  0.00  0.00    +0.001 A 
ATOM     12  C   UNL     1      19.180  59.050  30.146  0.00  0.00    +0.001 A 
ATOM     13  C   UNL     1      19.717  58.323  29.084  0.00  0.00    +0.012 A 
ATOM     14  C   UNL     1      18.961  57.317  28.470  0.00  0.00    +0.033 A 
ATOM     15  C   UNL     1      19.538  56.553  27.346  0.00  0.00    +0.198 C 
ATOM     16  O   UNL     1      20.675  56.814  26.969  0.00  0.00    -0.286 OA
ATOM     17  O   UNL     1      15.726  55.747  28.680  0.00  0.00    -0.287 OA
ATOM     20  C   UNL     1      18.730  55.495  26.708  0.00  0.00    +0.078 A 
ENDROOT
BRANCH   3   1
ATOM      1  O   UNL     1      20.523  54.987  25.163  0.00  0.00    -0.503 OA
ATOM      2  H   UNL     1      20.525  55.712  24.520  0.00  0.00    +0.292 HD
ENDBRANCH   3   1
BRANCH   4  18
ATOM     18  O   UNL     1      19.016  53.037  23.996  0.00  0.00    -0.503 OA
ATOM     19  H   UNL     1      19.703  53.571  23.559  0.00  0.00    +0.292 HD
ENDBRANCH   4  18
TORSDOF 2
ENDMDL
MODEL 3
REMARK VINA RESULT:    -6.972      3.492      4.942
REMARK INTER + INTRA:          -7.380
REMARK INTER:                  -7.380
REMARK INTRA:                   0.000
REMARK UNBOUND:                 0.000
REMARK  Name = C:\Users\HP\Downloads\Anthraquinone_pdb\AD9.pdb
REMARK  2 active torsions:
REMARK  status: ('A' for Active; 'I' for Inactive)
REMARK    1  A    between atoms: O_1  and  C_11
REMARK    2  A    between atoms: O_4  and  C_15
REMARK                            x       y       z     vdW  Elec       q    Type
REMARK                         _______ _______ _______ _____ _____    ______ ____
ROOT
ATOM      3  C   UNL     1      17.246  54.523  26.653  0.00  0.00    +0.170 A 
ATOM      4  C   UNL     1      18.004  53.916  25.651  0.00  0.00    +0.159 A 
ATOM      5  C   UNL     1      19.297  54.364  25.384  0.00  0.00    +0.050 A 
ATOM      6  C   UNL     1      19.837  55.420  26.117  0.00  0.00    +0.016 A 
ATOM      7  C   UNL     1      19.080  56.033  27.122  0.00  0.00    +0.037 A 
ATOM      8  C   UNL     1      19.660  57.153  27.892  0.00  0.00    +0.195 C 
ATOM      9  C   UNL     1      18.850  57.790  28.951  0.00  0.00    +0.033 A 
ATOM     10  C   UNL     1      19.388  58.851  29.688  0.00  0.00    +0.012 A 
ATOM     11  C   UNL     1      18.631  59.460  30.689  0.00  0.00    +0.001 A 
ATOM     12  C   UNL     1      17.339  59.012  30.956  0.00  0.00    +0.001 A 
ATOM     13  C   UNL     1      16.799  57.954  30.225  0.00  0.00    +0.012 A 
ATOM     14  C   UNL     1      17.556  57.341  29.219  0.00  0.00    +0.033 A 
ATOM     15  C   UNL     1      16.976  56.222  28.449  0.00  0.00    +0.198 C 
ATOM     16  O   UNL     1      15.838  55.848  28.706  0.00  0.00    -0.286 OA
ATOM     17  O   UNL     1      20.795  57.545  27.656  0.00  0.00    -0.287 OA
ATOM     20  C   UNL     1      17.785  55.584  27.391  0.00  0.00    +0.078 A 
ENDROOT
BRANCH   3   1
ATOM      1  O   UNL     1      15.987  54.047  26.873  0.00  0.00    -0.503 OA
ATOM      2  H   UNL     1      15.682  54.272  27.766  0.00  0.00    +0.292 HD
ENDBRANCH   3   1
BRANCH   4  18
ATOM     18  O   UNL     1      17.495  52.881  24.923  0.00  0.00    -0.503 OA
ATOM     19  H   UNL     1      17.218  52.181  25.541  0.00  0.00    +0.292 HD
ENDBRANCH   4  18
TORSDOF 2
ENDMDL
MODEL 4
REMARK VINA RESULT:    -6.725     18.564     19.955
REMARK INTER + INTRA:          -7.118
REMARK INTER:                  -7.118
REMARK INTRA:                   0.000
REMARK UNBOUND:                 0.000
REMARK  Name = C:\Users\HP\Downloads\Anthraquinone_pdb\AD9.pdb
REMARK  2 active torsions:
REMARK  status: ('A' for Active; 'I' for Inactive)
REMARK    1  A    between atoms: O_1  and  C_11
REMARK    2  A    between atoms: O_4  and  C_15
REMARK                            x       y       z     vdW  Elec       q    Type
REMARK                         _______ _______ _______ _____ _____    ______ ____
ROOT
ATOM      3  C   UNL     1       9.481  68.284  30.450  0.00  0.00    +0.170 A 
ATOM      4  C   UNL     1      10.495  67.460  30.939  0.00  0.00    +0.159 A 
ATOM      5  C   UNL     1      10.616  67.238  32.310  0.00  0.00    +0.050 A 
ATOM      6  C   UNL     1       9.723  67.837  33.197  0.00  0.00    +0.016 A 
ATOM      7  C   UNL     1       8.703  68.664  32.711  0.00  0.00    +0.037 A 
ATOM      8  C   UNL     1       7.762  69.297  33.659  0.00  0.00    +0.195 C 
ATOM      9  C   UNL     1       6.691  70.168  33.133  0.00  0.00    +0.033 A 
ATOM     10  C   UNL     1       5.794  70.772  34.020  0.00  0.00    +0.012 A 
ATOM     11  C   UNL     1       4.780  71.597  33.533  0.00  0.00    +0.001 A 
ATOM     12  C   UNL     1       4.659  71.819  32.162  0.00  0.00    +0.001 A 
ATOM     13  C   UNL     1       5.551  71.218  31.274  0.00  0.00    +0.012 A 
ATOM     14  C   UNL     1       6.571  70.390  31.760  0.00  0.00    +0.033 A 
ATOM     15  C   UNL     1       7.511  69.758  30.812  0.00  0.00    +0.198 C 
ATOM     16  O   UNL     1       7.381  69.970  29.612  0.00  0.00    -0.286 OA
ATOM     17  O   UNL     1       7.869  69.101  34.863  0.00  0.00    -0.287 OA
ATOM     20  C   UNL     1       8.582  68.888  31.338  0.00  0.00    +0.078 A 
ENDROOT
BRANCH   3   1
ATOM      1  O   UNL     1       9.408  68.469  29.100  0.00  0.00    -0.503 OA
ATOM      2  H   UNL     1       8.496  68.647  28.823  0.00  0.00    +0.292 HD
ENDBRANCH   3   1
BRANCH   4  18
ATOM     18  O   UNL     1      11.379  66.864  30.088  0.00  0.00    -0.503 OA
ATOM     19  H   UNL     1      10.953  66.074  29.711  0.00  0.00    +0.292 HD
ENDBRANCH   4  18
TORSDOF 2
ENDMDL
MODEL 5
REMARK VINA RESULT:    -6.543     25.991     27.782
REMARK INTER + INTRA:          -6.926
REMARK INTER:                  -6.926
REMARK INTRA:                   0.000
REMARK UNBOUND:                 0.000
REMARK  Name = C:\Users\HP\Downloads\Anthraquinone_pdb\AD9.pdb
REMARK  2 active torsions:
REMARK  status: ('A' for Active; 'I' for Inactive)
REMARK    1  A    between atoms: O_1  and  C_11
REMARK    2  A    between atoms: O_4  and  C_15
REMARK                            x       y       z     vdW  Elec       q    Type
REMARK                         _______ _______ _______ _____ _____    ______ ____
ROOT
ATOM      3  C   UNL     1      18.889  71.260   4.964  0.00  0.00    +0.170 A 
ATOM      4  C   UNL     1      19.888  72.233   4.992  0.00  0.00    +0.159 A 
ATOM      5  C   UNL     1      20.308  72.838   3.809  0.00  0.00    +0.050 A 
ATOM      6  C   UNL     1      19.731  72.474   2.593  0.00  0.00    +0.016 A 
ATOM      7  C   UNL     1      18.727  71.498   2.560  0.00  0.00    +0.037 A 
ATOM      8  C   UNL     1      18.122  71.117   1.267  0.00  0.00    +0.195 C 
ATOM      9  C   UNL     1      17.064  70.086   1.246  0.00  0.00    +0.033 A 
ATOM     10  C   UNL     1      16.483  69.717   0.028  0.00  0.00    +0.012 A 
ATOM     11  C   UNL     1      15.484  68.744  -0.001  0.00  0.00    +0.001 A 
ATOM     12  C   UNL     1      15.063  68.139   1.182  0.00  0.00    +0.001 A 
ATOM     13  C   UNL     1      15.640  68.504   2.398  0.00  0.00    +0.012 A 
ATOM     14  C   UNL     1      16.644  69.480   2.432  0.00  0.00    +0.033 A 
ATOM     15  C   UNL     1      17.249  69.861   3.724  0.00  0.00    +0.198 C 
ATOM     16  O   UNL     1      16.859  69.314   4.749  0.00  0.00    -0.286 OA
ATOM     17  O   UNL     1      18.492  71.650   0.228  0.00  0.00    -0.287 OA
ATOM     20  C   UNL     1      18.306  70.892   3.745  0.00  0.00    +0.078 A 
ENDROOT
BRANCH   3   1
ATOM      1  O   UNL     1      18.515  70.699   6.150  0.00  0.00    -0.503 OA
ATOM      2  H   UNL     1      17.789  71.197   6.556  0.00  0.00    +0.292 HD
ENDBRANCH   3   1
BRANCH   4  18
ATOM     18  O   UNL     1      20.466  72.604   6.170  0.00  0.00    -0.503 OA
ATOM     19  H   UNL     1      20.808  71.803   6.607  0.00  0.00    +0.292 HD
ENDBRANCH   4  18
TORSDOF 2
ENDMDL
MODEL 6
REMARK VINA RESULT:    -6.454      0.903      2.905
REMARK INTER + INTRA:          -6.831
REMARK INTER:                  -6.831
REMARK INTRA:                   0.000
REMARK UNBOUND:                 0.000
REMARK  Name = C:\Users\HP\Downloads\Anthraquinone_pdb\AD9.pdb
REMARK  2 active torsions:
REMARK  status: ('A' for Active; 'I' for Inactive)
REMARK    1  A    between atoms: O_1  and  C_11
REMARK    2  A    between atoms: O_4  and  C_15
REMARK                            x       y       z     vdW  Elec       q    Type
REMARK                         _______ _______ _______ _____ _____    ______ ____
ROOT
ATOM      3  C   UNL     1      22.877  56.289  24.911  0.00  0.00    +0.170 A 
ATOM      4  C   UNL     1      22.813  57.125  23.796  0.00  0.00    +0.159 A 
ATOM      5  C   UNL     1      21.578  57.517  23.285  0.00  0.00    +0.050 A 
ATOM      6  C   UNL     1      20.400  57.076  23.887  0.00  0.00    +0.016 A 
ATOM      7  C   UNL     1      20.458  56.237  25.006  0.00  0.00    +0.037 A 
ATOM      8  C   UNL     1      19.205  55.772  25.637  0.00  0.00    +0.195 C 
ATOM      9  C   UNL     1      19.281  54.887  26.817  0.00  0.00    +0.033 A 
ATOM     10  C   UNL     1      18.101  54.441  27.423  0.00  0.00    +0.012 A 
ATOM     11  C   UNL     1      18.163  53.604  28.538  0.00  0.00    +0.001 A 
ATOM     12  C   UNL     1      19.399  53.212  29.049  0.00  0.00    +0.001 A 
ATOM     13  C   UNL     1      20.577  53.655  28.448  0.00  0.00    +0.012 A 
ATOM     14  C   UNL     1      20.519  54.495  27.328  0.00  0.00    +0.033 A 
ATOM     15  C   UNL     1      21.772  54.959  26.698  0.00  0.00    +0.198 C 
ATOM     16  O   UNL     1      22.845  54.599  27.169  0.00  0.00    -0.286 OA
ATOM     17  O   UNL     1      18.119  56.117  25.187  0.00  0.00    -0.287 OA
ATOM     20  C   UNL     1      21.696  55.843  25.519  0.00  0.00    +0.078 A 
ENDROOT
BRANCH   3   1
ATOM      1  O   UNL     1      24.111  55.934  25.370  0.00  0.00    -0.503 OA
ATOM      2  H   UNL     1      24.056  55.162  25.953  0.00  0.00    +0.292 HD
ENDBRANCH   3   1
BRANCH   4  18
ATOM     18  O   UNL     1      23.953  57.568  23.193  0.00  0.00    -0.503 OA
ATOM     19  H   UNL     1      24.048  58.518  23.381  0.00  0.00    +0.292 HD
ENDBRANCH   4  18
TORSDOF 2
ENDMDL
MODEL 7
REMARK VINA RESULT:    -6.220     20.557     22.603
REMARK INTER + INTRA:          -6.584
REMARK INTER:                  -6.584
REMARK INTRA:                   0.000
REMARK UNBOUND:                 0.000
REMARK  Name = C:\Users\HP\Downloads\Anthraquinone_pdb\AD9.pdb
REMARK  2 active torsions:
REMARK  status: ('A' for Active; 'I' for Inactive)
REMARK    1  A    between atoms: O_1  and  C_11
REMARK    2  A    between atoms: O_4  and  C_15
REMARK                            x       y       z     vdW  Elec       q    Type
REMARK                         _______ _______ _______ _____ _____    ______ ____
ROOT
ATOM      3  C   UNL     1      24.181  64.737   5.878  0.00  0.00    +0.170 A 
ATOM      4  C   UNL     1      24.873  64.729   7.090  0.00  0.00    +0.159 A 
ATOM      5  C   UNL     1      25.202  63.519   7.699  0.00  0.00    +0.050 A 
ATOM      6  C   UNL     1      24.842  62.313   7.099  0.00  0.00    +0.016 A 
ATOM      7  C   UNL     1      24.148  62.316   5.884  0.00  0.00    +0.037 A 
ATOM      8  C   UNL     1      23.769  61.033   5.256  0.00  0.00    +0.195 C 
ATOM      9  C   UNL     1      23.037  61.051   3.974  0.00  0.00    +0.033 A 
ATOM     10  C   UNL     1      22.673  59.842   3.369  0.00  0.00    +0.012 A 
ATOM     11  C   UNL     1      21.980  59.849   2.158  0.00  0.00    +0.001 A 
ATOM     12  C   UNL     1      21.651  61.058   1.548  0.00  0.00    +0.001 A 
ATOM     13  C   UNL     1      22.013  62.265   2.147  0.00  0.00    +0.012 A 
ATOM     14  C   UNL     1      22.707  62.262   3.364  0.00  0.00    +0.033 A 
ATOM     15  C   UNL     1      23.086  63.545   3.990  0.00  0.00    +0.198 C 
ATOM     16  O   UNL     1      22.785  64.593   3.432  0.00  0.00    -0.286 OA
ATOM     17  O   UNL     1      24.058  59.971   5.793  0.00  0.00    -0.287 OA
ATOM     20  C   UNL     1      23.818  63.527   5.273  0.00  0.00    +0.078 A 
ENDROOT
BRANCH   3   1
ATOM      1  O   UNL     1      23.883  65.948   5.325  0.00  0.00    -0.503 OA
ATOM      2  H   UNL     1      24.450  66.645   5.689  0.00  0.00    +0.292 HD
ENDBRANCH   3   1
BRANCH   4  18
ATOM     18  O   UNL     1      25.234  65.897   7.693  0.00  0.00    -0.503 OA
ATOM     19  H   UNL     1      25.631  66.477   7.020  0.00  0.00    +0.292 HD
ENDBRANCH   4  18
TORSDOF 2
ENDMDL
MODEL 8
REMARK VINA RESULT:    -6.217      3.918      5.861
REMARK INTER + INTRA:          -6.580
REMARK INTER:                  -6.580
REMARK INTRA:                   0.000
REMARK UNBOUND:                 0.000
REMARK  Name = C:\Users\HP\Downloads\Anthraquinone_pdb\AD9.pdb
REMARK  2 active torsions:
REMARK  status: ('A' for Active; 'I' for Inactive)
REMARK    1  A    between atoms: O_1  and  C_11
REMARK    2  A    between atoms: O_4  and  C_15
REMARK                            x       y       z     vdW  Elec       q    Type
REMARK                         _______ _______ _______ _____ _____    ______ ____
ROOT
ATOM      3  C   UNL     1      19.414  58.717  29.683  0.00  0.00    +0.170 A 
ATOM      4  C   UNL     1      18.670  59.358  30.674  0.00  0.00    +0.159 A 
ATOM      5  C   UNL     1      17.350  58.980  30.912  0.00  0.00    +0.050 A 
ATOM      6  C   UNL     1      16.769  57.958  30.161  0.00  0.00    +0.016 A 
ATOM      7  C   UNL     1      17.512  57.312  29.166  0.00  0.00    +0.037 A 
ATOM      8  C   UNL     1      16.888  56.232  28.374  0.00  0.00    +0.195 C 
ATOM      9  C   UNL     1      17.683  55.559  27.327  0.00  0.00    +0.033 A 
ATOM     10  C   UNL     1      17.103  54.533  26.571  0.00  0.00    +0.012 A 
ATOM     11  C   UNL     1      17.846  53.892  25.580  0.00  0.00    +0.001 A 
ATOM     12  C   UNL     1      19.166  54.271  25.342  0.00  0.00    +0.001 A 
ATOM     13  C   UNL     1      19.748  55.291  26.094  0.00  0.00    +0.012 A 
ATOM     14  C   UNL     1      19.005  55.938  27.089  0.00  0.00    +0.033 A 
ATOM     15  C   UNL     1      19.629  57.018  27.881  0.00  0.00    +0.198 C 
ATOM     16  O   UNL     1      20.792  57.330  27.651  0.00  0.00    -0.286 OA
ATOM     17  O   UNL     1      15.728  55.900  28.584  0.00  0.00    -0.287 OA
ATOM     20  C   UNL     1      18.835  57.691  28.927  0.00  0.00    +0.078 A 
ENDROOT
BRANCH   3   1
ATOM      1  O   UNL     1      20.701  59.127  29.490  0.00  0.00    -0.503 OA
ATOM      2  H   UNL     1      21.027  58.850  28.620  0.00  0.00    +0.292 HD
ENDBRANCH   3   1
BRANCH   4  18
ATOM     18  O   UNL     1      19.219  60.360  31.419  0.00  0.00    -0.503 OA
ATOM     19  H   UNL     1      18.672  60.482  32.215  0.00  0.00    +0.292 HD
ENDBRANCH   4  18
TORSDOF 2
ENDMDL
MODEL 9
REMARK VINA RESULT:    -6.217      4.447      7.802
REMARK INTER + INTRA:          -6.580
REMARK INTER:                  -6.580
REMARK INTRA:                   0.000
REMARK UNBOUND:                 0.000
REMARK  Name = C:\Users\HP\Downloads\Anthraquinone_pdb\AD9.pdb
REMARK  2 active torsions:
REMARK  status: ('A' for Active; 'I' for Inactive)
REMARK    1  A    between atoms: O_1  and  C_11
REMARK    2  A    between atoms: O_4  and  C_15
REMARK                            x       y       z     vdW  Elec       q    Type
REMARK                         _______ _______ _______ _____ _____    ______ ____
ROOT
ATOM      3  C   UNL     1      24.648  57.458  23.017  0.00  0.00    +0.170 A 
ATOM      4  C   UNL     1      23.640  56.624  23.502  0.00  0.00    +0.159 A 
ATOM      5  C   UNL     1      23.267  56.685  24.843  0.00  0.00    +0.050 A 
ATOM      6  C   UNL     1      23.898  57.582  25.705  0.00  0.00    +0.016 A 
ATOM      7  C   UNL     1      24.910  58.421  25.223  0.00  0.00    +0.037 A 
ATOM      8  C   UNL     1      25.575  59.366  26.143  0.00  0.00    +0.195 C 
ATOM      9  C   UNL     1      26.641  60.246  25.621  0.00  0.00    +0.033 A 
ATOM     10  C   UNL     1      27.277  61.146  26.482  0.00  0.00    +0.012 A 
ATOM     11  C   UNL     1      28.286  61.980  25.998  0.00  0.00    +0.001 A 
ATOM     12  C   UNL     1      28.659  61.918  24.657  0.00  0.00    +0.001 A 
ATOM     13  C   UNL     1      28.026  61.023  23.795  0.00  0.00    +0.012 A 
ATOM     14  C   UNL     1      27.014  60.184  24.277  0.00  0.00    +0.033 A 
ATOM     15  C   UNL     1      26.350  59.239  23.357  0.00  0.00    +0.198 C 
ATOM     16  O   UNL     1      26.697  59.206  22.182  0.00  0.00    -0.286 OA
ATOM     17  O   UNL     1      25.246  59.420  27.321  0.00  0.00    -0.287 OA
ATOM     20  C   UNL     1      25.284  58.359  23.879  0.00  0.00    +0.078 A 
ENDROOT
BRANCH   3   1
ATOM      1  O   UNL     1      24.975  57.356  21.696  0.00  0.00    -0.503 OA
ATOM      2  H   UNL     1      25.698  56.724  21.566  0.00  0.00    +0.292 HD
ENDBRANCH   3   1
BRANCH   4  18
ATOM     18  O   UNL     1      23.010  55.740  22.677  0.00  0.00    -0.503 OA
ATOM     19  H   UNL     1      22.536  55.093  23.228  0.00  0.00    +0.292 HD
ENDBRANCH   4  18
TORSDOF 2
ENDMDL
