REMARK  Name = C:\Users\HP\Downloads\Anthraquinone_pdb\AD1.pdb
REMARK  4 active torsions:
REMARK  status: ('A' for Active; 'I' for Inactive)
REMARK    1  A    between atoms: O_1  and  C_13
REMARK    2  A    between atoms: O_4  and  C_15
REMARK    3  A    between atoms: O_5  and  C_18
REMARK    4  A    between atoms: C_14  and  C_20
REMARK                            x       y       z     vdW  Elec       q    Type
REMARK                         _______ _______ _______ _____ _____    ______ ____
ROOT
ATOM      3  C   UNL     1      -2.475   1.274  -0.001  0.00  0.00    +0.129 A 
ATOM      4  C   UNL     1      -3.685   0.580  -0.001  0.00  0.00    +0.049 A 
ATOM      5  C   UNL     1      -3.692  -0.813   0.000  0.00  0.00    -0.046 A 
ATOM      6  C   UNL     1      -4.988  -1.551   0.000  0.00  0.00    +0.044 C 
ATOM      7  C   UNL     1      -2.489  -1.519   0.000  0.00  0.00    +0.016 A 
ATOM      8  C   UNL     1      -1.272  -0.827   0.000  0.00  0.00    +0.037 A 
ATOM      9  C   UNL     1      -0.002  -1.582   0.001  0.00  0.00    +0.195 C 
ATOM     10  C   UNL     1       1.275  -0.840   0.000  0.00  0.00    +0.040 A 
ATOM     11  C   UNL     1       2.485  -1.544   0.000  0.00  0.00    +0.058 A 
ATOM     12  C   UNL     1       3.695  -0.850  -0.001  0.00  0.00    +0.121 A 
ATOM     13  C   UNL     1       3.702   0.543   0.000  0.00  0.00    +0.091 A 
ATOM     14  C   UNL     1       2.499   1.249   0.001  0.00  0.00    +0.132 A 
ATOM     19  C   UNL     1       1.282   0.557   0.001  0.00  0.00    +0.075 A 
ATOM     20  C   UNL     1       0.012   1.313   0.000  0.00  0.00    +0.202 C 
ATOM     21  O   UNL     1       0.018   2.537   0.000  0.00  0.00    -0.286 OA
ATOM     22  O   UNL     1      -0.009  -2.807   0.001  0.00  0.00    -0.287 OA
ATOM     23  C   UNL     1      -1.265   0.570   0.000  0.00  0.00    +0.075 A 
ENDROOT
BRANCH   3   1
ATOM      1  O   UNL     1      -2.542   2.636   0.000  0.00  0.00    -0.506 OA
ATOM      2  H   UNL     1      -1.654   3.025   0.002  0.00  0.00    +0.292 HD
ENDBRANCH   3   1
BRANCH  14  15
ATOM     15  O   UNL     1       2.579   2.610   0.001  0.00  0.00    -0.506 OA
ATOM     16  H   UNL     1       3.513   2.883   0.001  0.00  0.00    +0.292 HD
ENDBRANCH  14  15
BRANCH  12  17
ATOM     17  O   UNL     1       4.871  -1.536  -0.001  0.00  0.00    -0.507 OA
ATOM     18  H   UNL     1       4.681  -2.490  -0.001  0.00  0.00    +0.292 HD
ENDBRANCH  12  17
TORSDOF 3
