REMARK  Name = C:\Users\HP\Downloads\Anthraquinone_pdb\AD10.pdb
REMARK  3 active torsions:
REMARK  status: ('A' for Active; 'I' for Inactive)
REMARK    1  A    between atoms: O_1  and  C_12
REMARK    2  A    between atoms: O_2  and  C_13
REMARK    3  A    between atoms: O_5  and  C_14
REMARK                            x       y       z     vdW  Elec       q    Type
REMARK                         _______ _______ _______ _____ _____    ______ ____
ROOT
ATOM      3  C   UNL     1       2.067   1.157   0.000  0.00  0.00    +0.170 A 
ATOM      4  C   UNL     1       3.212   0.359   0.001  0.00  0.00    +0.162 A 
ATOM      5  C   UNL     1       3.096  -1.029   0.001  0.00  0.00    +0.095 A 
ATOM      6  C   UNL     1       1.835  -1.626   0.000  0.00  0.00    +0.132 A 
ATOM      7  C   UNL     1       0.684  -0.830   0.000  0.00  0.00    +0.078 A 
ATOM      8  C   UNL     1      -0.647  -1.471   0.000  0.00  0.00    +0.198 C 
ATOM      9  C   UNL     1      -1.853  -0.618   0.000  0.00  0.00    +0.033 A 
ATOM     10  C   UNL     1      -3.120  -1.213   0.000  0.00  0.00    +0.012 A 
ATOM     11  C   UNL     1      -4.265  -0.416   0.001  0.00  0.00    +0.001 A 
ATOM     12  C   UNL     1      -4.149   0.973   0.001  0.00  0.00    +0.001 A 
ATOM     13  C   UNL     1      -2.889   1.570   0.000  0.00  0.00    +0.012 A 
ATOM     14  C   UNL     1      -1.737   0.773   0.000  0.00  0.00    +0.033 A 
ATOM     15  C   UNL     1      -0.406   1.414  -0.001  0.00  0.00    +0.198 C 
ATOM     16  O   UNL     1      -0.334   2.637  -0.001  0.00  0.00    -0.286 OA
ATOM     17  O   UNL     1      -0.775  -2.688  -0.001  0.00  0.00    -0.286 OA
ATOM     22  C   UNL     1       0.800   0.562   0.000  0.00  0.00    +0.082 A 
ENDROOT
BRANCH   3   1
ATOM      1  O   UNL     1       2.236   2.511   0.000  0.00  0.00    -0.503 OA
ATOM      2  H   UNL     1       1.382   2.968   0.000  0.00  0.00    +0.292 HD
ENDBRANCH   3   1
BRANCH   6  18
ATOM     18  O   UNL     1       1.792  -2.989   0.000  0.00  0.00    -0.506 OA
ATOM     19  H   UNL     1       2.697  -3.345   0.001  0.00  0.00    +0.292 HD
ENDBRANCH   6  18
BRANCH   4  20
ATOM     20  O   UNL     1       4.453   0.923   0.000  0.00  0.00    -0.503 OA
ATOM     21  H   UNL     1       4.349   1.891   0.000  0.00  0.00    +0.292 HD
ENDBRANCH   4  20
TORSDOF 3
