REMARK  Name = C:\Users\HP\Downloads\Anthraquinone_pdb\AD11.pdb
REMARK  2 active torsions:
REMARK  status: ('A' for Active; 'I' for Inactive)
REMARK    1  A    between atoms: O_1  and  C_11
REMARK    2  A    between atoms: O_4  and  C_15
REMARK                            x       y       z     vdW  Elec       q    Type
REMARK                         _______ _______ _______ _____ _____    ______ ____
ROOT
ATOM      3  C   UNL     1       2.070   1.328   0.000  0.00  0.00    +0.132 A 
ATOM      4  C   UNL     1       3.280   0.633   0.000  0.00  0.00    +0.091 A 
ATOM      5  C   UNL     1       3.285  -0.760   0.000  0.00  0.00    +0.121 A 
ATOM      6  C   UNL     1       2.081  -1.465   0.000  0.00  0.00    +0.058 A 
ATOM      7  C   UNL     1       0.865  -0.771   0.001  0.00  0.00    +0.040 A 
ATOM      8  C   UNL     1      -0.405  -1.526   0.001  0.00  0.00    +0.195 C 
ATOM      9  C   UNL     1      -1.681  -0.782   0.000  0.00  0.00    +0.033 A 
ATOM     10  C   UNL     1      -2.892  -1.485   0.000  0.00  0.00    +0.012 A 
ATOM     11  C   UNL     1      -4.102  -0.790  -0.001  0.00  0.00    +0.001 A 
ATOM     12  C   UNL     1      -4.107   0.603  -0.002  0.00  0.00    +0.001 A 
ATOM     13  C   UNL     1      -2.903   1.308  -0.001  0.00  0.00    +0.012 A 
ATOM     14  C   UNL     1      -1.687   0.615   0.000  0.00  0.00    +0.033 A 
ATOM     15  C   UNL     1      -0.417   1.369   0.000  0.00  0.00    +0.198 C 
ATOM     16  O   UNL     1      -0.449   2.593   0.002  0.00  0.00    -0.286 OA
ATOM     17  O   UNL     1      -0.400  -2.751   0.001  0.00  0.00    -0.287 OA
ATOM     20  C   UNL     1       0.859   0.625   0.001  0.00  0.00    +0.075 A 
ENDROOT
BRANCH   3   1
ATOM      1  O   UNL     1       2.134   2.690  -0.001  0.00  0.00    -0.506 OA
ATOM      2  H   UNL     1       3.064   2.973  -0.001  0.00  0.00    +0.292 HD
ENDBRANCH   3   1
BRANCH   5  18
ATOM     18  O   UNL     1       4.468  -1.435  -0.002  0.00  0.00    -0.507 OA
ATOM     19  H   UNL     1       4.286  -2.391  -0.003  0.00  0.00    +0.292 HD
ENDBRANCH   5  18
TORSDOF 2
