REMARK  Name = C:\Users\HP\Downloads\Anthraquinone_pdb\AD12.pdb
REMARK  4 active torsions:
REMARK  status: ('A' for Active; 'I' for Inactive)
REMARK    1  A    between atoms: O_1  and  C_10
REMARK    2  A    between atoms: O_2  and  C_15
REMARK    3  A    between atoms: O_5  and  C_18
REMARK    4  A    between atoms: C_13  and  C_18
REMARK                            x       y       z     vdW  Elec       q    Type
REMARK                         _______ _______ _______ _____ _____    ______ ____
ROOT
ATOM      3  C   UNL     1       1.714  -0.985  -0.167  0.00  0.00    +0.137 A 
ATOM      4  C   UNL     1       2.835  -0.155  -0.187  0.00  0.00    +0.061 A 
ATOM      8  C   UNL     1       2.682   1.229  -0.138  0.00  0.00    +0.126 A 
ATOM      9  C   UNL     1       1.406   1.789  -0.069  0.00  0.00    +0.058 A 
ATOM     10  C   UNL     1       0.278   0.961  -0.049  0.00  0.00    +0.040 A 
ATOM     11  C   UNL     1      -1.069   1.563   0.024  0.00  0.00    +0.195 C 
ATOM     12  C   UNL     1      -2.251   0.677   0.045  0.00  0.00    +0.033 A 
ATOM     13  C   UNL     1      -3.533   1.236   0.114  0.00  0.00    +0.012 A 
ATOM     14  C   UNL     1      -4.654   0.406   0.133  0.00  0.00    +0.001 A 
ATOM     15  C   UNL     1      -4.501  -0.978   0.084  0.00  0.00    +0.001 A 
ATOM     16  C   UNL     1      -3.225  -1.539   0.016  0.00  0.00    +0.012 A 
ATOM     17  C   UNL     1      -2.097  -0.710  -0.004  0.00  0.00    +0.033 A 
ATOM     18  C   UNL     1      -0.750  -1.313  -0.077  0.00  0.00    +0.198 C 
ATOM     19  O   UNL     1      -0.644  -2.532  -0.119  0.00  0.00    -0.286 OA
ATOM     20  O   UNL     1      -1.204   2.780   0.069  0.00  0.00    -0.287 OA
ATOM     23  C   UNL     1       0.432  -0.426  -0.098  0.00  0.00    +0.075 A 
ENDROOT
BRANCH   3   1
ATOM      1  O   UNL     1       1.914  -2.334  -0.216  0.00  0.00    -0.506 OA
ATOM      2  H   UNL     1       2.744  -2.563   0.233  0.00  0.00    +0.292 HD
ENDBRANCH   3   1
BRANCH   8  21
ATOM     21  O   UNL     1       3.768   2.052  -0.157  0.00  0.00    -0.506 OA
ATOM     22  H   UNL     1       3.468   2.977  -0.116  0.00  0.00    +0.292 HD
ENDBRANCH   8  21
BRANCH   4   5
ATOM      5  C   UNL     1       4.208  -0.747  -0.261  0.00  0.00    +0.198 C 
BRANCH   5   6
ATOM      6  O   UNL     1       4.691  -0.973   1.056  0.00  0.00    -0.390 OA
ATOM      7  H   UNL     1       5.585  -1.346   0.972  0.00  0.00    +0.210 HD
ENDBRANCH   5   6
ENDBRANCH   4   5
TORSDOF 4
