REMARK  Name = C:\Users\HP\Downloads\Anthraquinone_pdb\AD13.pdb
REMARK  3 active torsions:
REMARK  status: ('A' for Active; 'I' for Inactive)
REMARK    1  A    between atoms: O_1  and  C_12
REMARK    2  A    between atoms: O_4  and  C_14
REMARK    3  A    between atoms: O_5  and  C_15
REMARK                            x       y       z     vdW  Elec       q    Type
REMARK                         _______ _______ _______ _____ _____    ______ ____
ROOT
ATOM      3  C   UNL     1       1.909  -1.147   0.000  0.00  0.00    +0.174 A 
ATOM      4  C   UNL     1       3.075  -0.380   0.000  0.00  0.00    +0.201 A 
ATOM      5  C   UNL     1       2.996   1.011   0.000  0.00  0.00    +0.163 A 
ATOM      6  C   UNL     1       1.752   1.642   0.000  0.00  0.00    +0.061 A 
ATOM      7  C   UNL     1       0.580   0.877   0.001  0.00  0.00    +0.040 A 
ATOM      8  C   UNL     1      -0.733   1.553   0.001  0.00  0.00    +0.195 C 
ATOM      9  C   UNL     1      -1.962   0.734   0.000  0.00  0.00    +0.033 A 
ATOM     10  C   UNL     1      -3.213   1.363  -0.001  0.00  0.00    +0.012 A 
ATOM     11  C   UNL     1      -4.379   0.596  -0.001  0.00  0.00    +0.001 A 
ATOM     12  C   UNL     1      -4.301  -0.795  -0.001  0.00  0.00    +0.001 A 
ATOM     13  C   UNL     1      -3.057  -1.426   0.000  0.00  0.00    +0.012 A 
ATOM     14  C   UNL     1      -1.884  -0.660   0.000  0.00  0.00    +0.033 A 
ATOM     15  C   UNL     1      -0.571  -1.337   0.001  0.00  0.00    +0.198 C 
ATOM     16  O   UNL     1      -0.531  -2.561   0.002  0.00  0.00    -0.286 OA
ATOM     17  O   UNL     1      -0.803   2.776   0.001  0.00  0.00    -0.287 OA
ATOM     22  C   UNL     1       0.658  -0.518   0.000  0.00  0.00    +0.078 A 
ENDROOT
BRANCH   3   1
ATOM      1  O   UNL     1       2.041  -2.505  -0.001  0.00  0.00    -0.503 OA
ATOM      2  H   UNL     1       1.174  -2.938  -0.004  0.00  0.00    +0.292 HD
ENDBRANCH   3   1
BRANCH   5  18
ATOM     18  O   UNL     1       4.129   1.768  -0.001  0.00  0.00    -0.503 OA
ATOM     19  H   UNL     1       4.897   1.171  -0.001  0.00  0.00    +0.292 HD
ENDBRANCH   5  18
BRANCH   4  20
ATOM     20  O   UNL     1       4.295  -0.990  -0.001  0.00  0.00    -0.501 OA
ATOM     21  H   UNL     1       4.157  -1.953  -0.002  0.00  0.00    +0.292 HD
ENDBRANCH   4  20
TORSDOF 3
