REMARK  Name = C:\Users\HP\Downloads\Anthraquinone_pdb\AD14.pdb
REMARK  4 active torsions:
REMARK  status: ('A' for Active; 'I' for Inactive)
REMARK    1  A    between atoms: O_1  and  C_12
REMARK    2  A    between atoms: O_1  and  C_21
REMARK    3  A    between atoms: O_4  and  C_15
REMARK    4  A    between atoms: C_14  and  C_20
REMARK                            x       y       z     vdW  Elec       q    Type
REMARK                         _______ _______ _______ _____ _____    ______ ____
ROOT
ATOM      3  C   UNL     1       1.608   0.860   0.149  0.00  0.00    +0.145 A 
ATOM      4  C   UNL     1       2.719   0.018   0.103  0.00  0.00    +0.098 A 
ATOM      7  C   UNL     1       2.547  -1.361  -0.003  0.00  0.00    +0.131 A 
ATOM      8  C   UNL     1       1.263  -1.903  -0.063  0.00  0.00    +0.058 A 
ATOM      9  C   UNL     1       0.145  -1.061  -0.016  0.00  0.00    +0.040 A 
ATOM     10  C   UNL     1      -1.210  -1.644  -0.079  0.00  0.00    +0.195 C 
ATOM     11  C   UNL     1      -2.381  -0.745  -0.030  0.00  0.00    +0.033 A 
ATOM     12  C   UNL     1      -3.672  -1.285  -0.090  0.00  0.00    +0.012 A 
ATOM     13  C   UNL     1      -4.783  -0.442  -0.044  0.00  0.00    +0.001 A 
ATOM     14  C   UNL     1      -4.610   0.937   0.060  0.00  0.00    +0.001 A 
ATOM     15  C   UNL     1      -3.326   1.479   0.120  0.00  0.00    +0.012 A 
ATOM     16  C   UNL     1      -2.209   0.637   0.075  0.00  0.00    +0.033 A 
ATOM     17  C   UNL     1      -0.853   1.220   0.139  0.00  0.00    +0.198 C 
ATOM     18  O   UNL     1      -0.731   2.435   0.230  0.00  0.00    -0.286 OA
ATOM     19  O   UNL     1      -1.362  -2.856  -0.173  0.00  0.00    -0.287 OA
ATOM     22  C   UNL     1       0.318   0.320   0.090  0.00  0.00    +0.076 A 
ENDROOT
BRANCH   3   1
ATOM      1  O   UNL     1       1.823   2.205   0.252  0.00  0.00    -0.494 OA
ATOM      2  C   UNL     1       1.944   2.933  -0.967  0.00  0.00    +0.277 C 
ENDBRANCH   3   1
BRANCH   4   5
ATOM      5  C   UNL     1       4.067   0.574   0.165  0.00  0.00    +0.266 C 
ATOM      6  O   UNL     1       5.081  -0.124   0.129  0.00  0.00    -0.295 OA
ENDBRANCH   4   5
BRANCH   7  20
ATOM     20  O   UNL     1       3.621  -2.200  -0.049  0.00  0.00    -0.506 OA
ATOM     21  H   UNL     1       3.306  -3.117  -0.122  0.00  0.00    +0.292 HD
ENDBRANCH   7  20
TORSDOF 3
