REMARK  Name = C:\Users\HP\Downloads\Anthraquinone_pdb\AD15.pdb
REMARK  3 active torsions:
REMARK  status: ('A' for Active; 'I' for Inactive)
REMARK    1  A    between atoms: O_1  and  C_12
REMARK    2  A    between atoms: O_4  and  C_15
REMARK    3  A    between atoms: C_14  and  C_20
REMARK                            x       y       z     vdW  Elec       q    Type
REMARK                         _______ _______ _______ _____ _____    ______ ____
ROOT
ATOM      3  C   UNL     1       1.767   0.874   0.000  0.00  0.00    +0.142 A 
ATOM      4  C   UNL     1       2.857   0.004   0.000  0.00  0.00    +0.098 A 
ATOM      7  C   UNL     1       2.652  -1.374  -0.001  0.00  0.00    +0.131 A 
ATOM      8  C   UNL     1       1.355  -1.888   0.000  0.00  0.00    +0.058 A 
ATOM      9  C   UNL     1       0.258  -1.019   0.000  0.00  0.00    +0.040 A 
ATOM     10  C   UNL     1      -1.112  -1.572   0.001  0.00  0.00    +0.195 C 
ATOM     11  C   UNL     1      -2.261  -0.643   0.000  0.00  0.00    +0.033 A 
ATOM     12  C   UNL     1      -3.564  -1.155   0.000  0.00  0.00    +0.012 A 
ATOM     13  C   UNL     1      -4.654  -0.285  -0.001  0.00  0.00    +0.001 A 
ATOM     14  C   UNL     1      -4.449   1.093  -0.001  0.00  0.00    +0.001 A 
ATOM     15  C   UNL     1      -3.152   1.607  -0.001  0.00  0.00    +0.012 A 
ATOM     16  C   UNL     1      -2.055   0.738   0.000  0.00  0.00    +0.033 A 
ATOM     17  C   UNL     1      -0.685   1.291   0.001  0.00  0.00    +0.198 C 
ATOM     18  O   UNL     1      -0.534   2.506   0.001  0.00  0.00    -0.286 OA
ATOM     19  O   UNL     1      -1.293  -2.784   0.001  0.00  0.00    -0.287 OA
ATOM     22  C   UNL     1       0.464   0.362   0.000  0.00  0.00    +0.075 A 
ENDROOT
BRANCH   3   1
ATOM      1  O   UNL     1       2.015   2.217   0.000  0.00  0.00    -0.505 OA
ATOM      2  H   UNL     1       2.872   2.407  -0.412  0.00  0.00    +0.292 HD
ENDBRANCH   3   1
BRANCH   4   5
ATOM      5  C   UNL     1       4.218   0.531   0.000  0.00  0.00    +0.266 C 
ATOM      6  O   UNL     1       4.468   1.737   0.000  0.00  0.00    -0.295 OA
ENDBRANCH   4   5
BRANCH   7  20
ATOM     20  O   UNL     1       3.705  -2.240  -0.001  0.00  0.00    -0.506 OA
ATOM     21  H   UNL     1       3.368  -3.153  -0.002  0.00  0.00    +0.292 HD
ENDBRANCH   7  20
TORSDOF 3
