REMARK  Name = C:\Users\HP\Downloads\Anthraquinone_pdb\AD16.pdb
REMARK  3 active torsions:
REMARK  status: ('A' for Active; 'I' for Inactive)
REMARK    1  A    between atoms: C_14  and  O_15
REMARK    2  A    between atoms: C_16  and  C_17
REMARK    3  A    between atoms: C_17  and  O_18
REMARK                            x       y       z     vdW  Elec       q    Type
REMARK                         _______ _______ _______ _____ _____    ______ ____
ROOT
ATOM      1  O   UNL     1       0.967   0.084  -0.004  0.00  0.00    -0.287 OA
ATOM      2  C   UNL     1       2.193   0.087  -0.006  0.00  0.00    +0.195 C 
ATOM      3  C   UNL     1       2.937  -1.187  -0.008  0.00  0.00    +0.037 A 
ATOM      4  C   UNL     1       2.226  -2.393  -0.014  0.00  0.00    +0.058 A 
ATOM      5  C   UNL     1       2.921  -3.600  -0.014  0.00  0.00    +0.123 A 
ATOM      6  C   UNL     1       4.321  -3.634  -0.006  0.00  0.00    +0.020 A 
ATOM      7  C   UNL     1       5.020  -2.415   0.001  0.00  0.00    +0.022 A 
ATOM     13  C   UNL     1       4.330  -1.194  -0.002  0.00  0.00    +0.034 A 
ATOM     14  C   UNL     1       5.082   0.080   0.005  0.00  0.00    +0.195 C 
ATOM     15  O   UNL     1       6.308   0.076   0.019  0.00  0.00    -0.287 OA
ATOM     16  C   UNL     1       4.335   1.357  -0.001  0.00  0.00    +0.033 A 
ATOM     17  C   UNL     1       5.032   2.572   0.000  0.00  0.00    +0.012 A 
ATOM     18  C   UNL     1       4.331   3.781   0.000  0.00  0.00    +0.001 A 
ATOM     19  C   UNL     1       2.937   3.780  -0.001  0.00  0.00    +0.001 A 
ATOM     20  C   UNL     1       2.240   2.571  -0.003  0.00  0.00    +0.012 A 
ATOM     21  C   UNL     1       2.941   1.358  -0.004  0.00  0.00    +0.033 A 
ENDROOT
BRANCH   5  11
ATOM     11  O   UNL     1       2.239  -4.785  -0.036  0.00  0.00    -0.506 OA
ATOM     12  H   UNL     1       1.283  -4.601  -0.002  0.00  0.00    +0.292 HD
ENDBRANCH   5  11
BRANCH   6   8
ATOM      8  C   UNL     1       5.072  -4.941   0.017  0.00  0.00    +0.194 C 
BRANCH   8   9
ATOM      9  O   UNL     1       4.738  -5.733  -1.115  0.00  0.00    -0.390 OA
ATOM     10  H   UNL     1       3.764  -5.790  -1.111  0.00  0.00    +0.210 HD
ENDBRANCH   8   9
ENDBRANCH   6   8
TORSDOF 3
