REMARK  Name = C:\Users\HP\Downloads\Anthraquinone_pdb\AD17.pdb
REMARK  2 active torsions:
REMARK  status: ('A' for Active; 'I' for Inactive)
REMARK    1  A    between atoms: C_1  and  C_2
REMARK    2  A    between atoms: C_7  and  O_8
REMARK                            x       y       z     vdW  Elec       q    Type
REMARK                         _______ _______ _______ _____ _____    ______ ____
ROOT
ATOM      1  C   UNL     1       0.966   0.175   0.057  0.00  0.00    +0.047 C 
ATOM      2  C   UNL     1       2.468   0.145   0.057  0.00  0.00    -0.008 A 
ATOM      3  C   UNL     1       3.218   1.326   0.057  0.00  0.00    +0.120 A 
ATOM      6  C   UNL     1       4.613   1.296   0.055  0.00  0.00    +0.058 A 
ATOM      7  C   UNL     1       5.278   0.063   0.054  0.00  0.00    +0.037 A 
ATOM      8  C   UNL     1       6.755   0.024   0.053  0.00  0.00    +0.195 C 
ATOM      9  C   UNL     1       7.441  -1.286   0.051  0.00  0.00    +0.033 A 
ATOM     10  C   UNL     1       6.702  -2.468   0.051  0.00  0.00    +0.033 A 
ATOM     11  C   UNL     1       5.228  -2.428   0.054  0.00  0.00    +0.195 C 
ATOM     12  O   UNL     1       4.581  -3.469   0.055  0.00  0.00    -0.287 OA
ATOM     13  C   UNL     1       7.355  -3.707   0.049  0.00  0.00    +0.012 A 
ATOM     14  C   UNL     1       8.749  -3.761   0.046  0.00  0.00    +0.001 A 
ATOM     15  C   UNL     1       9.490  -2.580   0.046  0.00  0.00    +0.001 A 
ATOM     16  C   UNL     1       8.841  -1.343   0.048  0.00  0.00    +0.012 A 
ATOM     17  O   UNL     1       7.401   1.066   0.053  0.00  0.00    -0.287 OA
ATOM     18  C   UNL     1       4.544  -1.122   0.055  0.00  0.00    +0.034 A 
ATOM     19  C   UNL     1       3.144  -1.082   0.056  0.00  0.00    +0.019 A 
ENDROOT
BRANCH   3   4
ATOM      4  O   UNL     1       2.553   2.519   0.058  0.00  0.00    -0.506 OA
ATOM      5  H   UNL     1       3.197   3.246   0.061  0.00  0.00    +0.292 HD
ENDBRANCH   3   4
TORSDOF 1
