REMARK  Name = C:\Users\HP\Downloads\Anthraquinone_pdb\AD18.pdb
REMARK  5 active torsions:
REMARK  status: ('A' for Active; 'I' for Inactive)
REMARK    1  A    between atoms: O_1  and  C_10
REMARK    2  A    between atoms: O_2  and  C_15
REMARK    3  A    between atoms: O_3  and  C_16
REMARK    4  A    between atoms: O_3  and  C_21
REMARK    5  A    between atoms: C_11  and  C_16
REMARK                            x       y       z     vdW  Elec       q    Type
REMARK                         _______ _______ _______ _____ _____    ______ ____
ROOT
ATOM      3  C   UNL     1       1.473   0.816   0.287  0.00  0.00    +0.137 A 
ATOM      4  C   UNL     1       2.541  -0.080   0.316  0.00  0.00    +0.061 A 
ATOM      8  C   UNL     1       2.307  -1.451   0.221  0.00  0.00    +0.126 A 
ATOM      9  C   UNL     1       1.002  -1.930   0.096  0.00  0.00    +0.058 A 
ATOM     10  C   UNL     1      -0.073  -1.034   0.067  0.00  0.00    +0.040 A 
ATOM     11  C   UNL     1      -1.450  -1.551  -0.064  0.00  0.00    +0.195 C 
ATOM     12  C   UNL     1      -2.575  -0.594  -0.094  0.00  0.00    +0.033 A 
ATOM     13  C   UNL     1      -3.886  -1.071  -0.219  0.00  0.00    +0.012 A 
ATOM     14  C   UNL     1      -4.954  -0.174  -0.248  0.00  0.00    +0.001 A 
ATOM     15  C   UNL     1      -4.720   1.196  -0.153  0.00  0.00    +0.001 A 
ATOM     16  C   UNL     1      -3.415   1.676  -0.029  0.00  0.00    +0.012 A 
ATOM     17  C   UNL     1      -2.340   0.779   0.001  0.00  0.00    +0.033 A 
ATOM     18  C   UNL     1      -0.963   1.296   0.132  0.00  0.00    +0.198 C 
ATOM     19  O   UNL     1      -0.785   2.505   0.215  0.00  0.00    -0.286 OA
ATOM     20  O   UNL     1      -1.657  -2.755  -0.147  0.00  0.00    -0.287 OA
ATOM     23  C   UNL     1       0.162   0.339   0.162  0.00  0.00    +0.075 A 
ENDROOT
BRANCH   3   1
ATOM      1  O   UNL     1       1.752   2.149   0.383  0.00  0.00    -0.506 OA
ATOM      2  H   UNL     1       2.608   2.339  -0.034  0.00  0.00    +0.292 HD
ENDBRANCH   3   1
BRANCH   8  21
ATOM     21  O   UNL     1       3.340  -2.339   0.247  0.00  0.00    -0.506 OA
ATOM     22  H   UNL     1       2.986  -3.242   0.170  0.00  0.00    +0.292 HD
ENDBRANCH   8  21
BRANCH   4   5
ATOM      5  C   UNL     1       3.943   0.424   0.449  0.00  0.00    +0.202 C 
BRANCH   5   6
ATOM      6  O   UNL     1       4.481   0.657  -0.845  0.00  0.00    -0.378 OA
ATOM      7  C   UNL     1       5.817   1.139  -0.776  0.00  0.00    +0.194 C 
ENDBRANCH   5   6
ENDBRANCH   4   5
TORSDOF 4
