REMARK  Name = C:\Users\HP\Downloads\Anthraquinone_pdb\AD19.pdb
REMARK  7 active torsions:
REMARK  status: ('A' for Active; 'I' for Inactive)
REMARK    1  A    between atoms: C_1  and  O_2
REMARK    2  A    between atoms: O_2  and  C_3
REMARK    3  A    between atoms: C_7  and  O_8
REMARK    4  A    between atoms: C_11  and  C_12
REMARK    5  A    between atoms: C_16  and  O_17
REMARK    6  A    between atoms: C_19  and  O_20
REMARK    7  A    between atoms: O_20  and  C_21
REMARK                            x       y       z     vdW  Elec       q    Type
REMARK                         _______ _______ _______ _____ _____    ______ ____
ROOT
ATOM      3  C   UNL     1       3.179  -1.732  -1.045  0.00  0.00    +0.147 C 
ATOM      4  C   UNL     1       3.369  -0.430  -1.864  0.00  0.00    +0.152 C 
ATOM      7  C   UNL     1       2.273   0.558  -1.391  0.00  0.00    +0.055 C 
ATOM      8  C   UNL     1       0.874  -0.002  -1.755  0.00  0.00    +0.026 C 
ATOM      9  C   UNL     1      -0.214   0.948  -1.218  0.00  0.00    +0.121 C 
ATOM     10  C   UNL     1       0.004   2.328  -1.853  0.00  0.00    +0.024 C 
ATOM     11  C   UNL     1       1.360   2.931  -1.415  0.00  0.00    +0.024 C 
ATOM     12  C   UNL     1       1.593   4.383  -1.896  0.00  0.00    +0.007 C 
ATOM     13  C   UNL     1       0.350   5.274  -1.917  0.00  0.00    +0.003 C 
ATOM     14  C   UNL     1      -0.889   4.571  -2.468  0.00  0.00    -0.014 C 
ATOM     15  C   UNL     1      -0.738   4.253  -3.964  0.00  0.00    +0.007 C 
ATOM     16  C   UNL     1      -1.145   3.309  -1.628  0.00  0.00    +0.009 C 
ATOM     19  C   UNL     1       0.644  -1.444  -1.264  0.00  0.00    +0.009 C 
ATOM     20  C   UNL     1       2.503   2.001  -1.886  0.00  0.00    +0.124 C 
ATOM     23  C   UNL     1       1.843  -2.379  -1.444  0.00  0.00    +0.034 C 
ENDROOT
BRANCH   3   2
ATOM      1  C   UNL     1       3.151  -2.369   1.293  0.00  0.00    +0.194 C 
ATOM      2  O   UNL     1       3.238  -1.341   0.332  0.00  0.00    -0.377 OA
ENDBRANCH   3   2
BRANCH   4   5
ATOM      5  O   UNL     1       3.230  -0.599  -3.285  0.00  0.00    -0.377 OA
ATOM      6  C   UNL     1       4.218  -1.405  -3.906  0.00  0.00    +0.194 C 
ENDBRANCH   4   5
BRANCH   9  17
ATOM     17  O   UNL     1      -1.504   0.440  -1.550  0.00  0.00    -0.391 OA
ATOM     18  H   UNL     1      -1.578   0.441  -2.521  0.00  0.00    +0.210 HD
ENDBRANCH   9  17
BRANCH  20  21
ATOM     21  O   UNL     1       2.592   2.066  -3.307  0.00  0.00    -0.391 OA
ATOM     22  H   UNL     1       3.178   1.344  -3.602  0.00  0.00    +0.210 HD
ENDBRANCH  20  21
TORSDOF 4
