REMARK  Name = C:\Users\HP\Downloads\Anthraquinone_pdb\AD2.pdb
REMARK  3 active torsions:
REMARK  status: ('A' for Active; 'I' for Inactive)
REMARK    1  A    between atoms: O_1  and  C_12
REMARK    2  A    between atoms: O_4  and  C_14
REMARK    3  A    between atoms: C_13  and  C_19
REMARK                            x       y       z     vdW  Elec       q    Type
REMARK                         _______ _______ _______ _____ _____    ______ ____
ROOT
ATOM      3  C   UNL     1       2.085  -1.413  -0.001  0.00  0.00    +0.129 A 
ATOM      4  C   UNL     1       3.360  -0.847   0.000  0.00  0.00    +0.049 A 
ATOM      5  C   UNL     1       3.509   0.539   0.000  0.00  0.00    -0.046 A 
ATOM      6  C   UNL     1       4.873   1.141   0.003  0.00  0.00    +0.044 C 
ATOM      7  C   UNL     1       2.384   1.364   0.000  0.00  0.00    +0.016 A 
ATOM      8  C   UNL     1       1.103   0.799  -0.001  0.00  0.00    +0.037 A 
ATOM      9  C   UNL     1      -0.083   1.681  -0.001  0.00  0.00    +0.195 C 
ATOM     10  C   UNL     1      -1.429   1.072  -0.001  0.00  0.00    +0.037 A 
ATOM     11  C   UNL     1      -2.561   1.896   0.000  0.00  0.00    +0.012 A 
ATOM     12  C   UNL     1      -3.836   1.329   0.001  0.00  0.00    +0.004 A 
ATOM     13  C   UNL     1      -3.985  -0.056   0.001  0.00  0.00    +0.046 A 
ATOM     14  C   UNL     1      -2.860  -0.881   0.000  0.00  0.00    +0.128 A 
ATOM     17  C   UNL     1      -1.578  -0.317   0.000  0.00  0.00    +0.075 A 
ATOM     18  C   UNL     1      -0.393  -1.198   0.000  0.00  0.00    +0.202 C 
ATOM     19  O   UNL     1      -0.524  -2.415   0.001  0.00  0.00    -0.286 OA
ATOM     20  O   UNL     1       0.048   2.898  -0.001  0.00  0.00    -0.287 OA
ATOM     21  C   UNL     1       0.953  -0.589  -0.001  0.00  0.00    +0.075 A 
ENDROOT
BRANCH   3   1
ATOM      1  O   UNL     1       2.012  -2.775  -0.002  0.00  0.00    -0.506 OA
ATOM      2  H   UNL     1       2.909  -3.151  -0.002  0.00  0.00    +0.292 HD
ENDBRANCH   3   1
BRANCH  14  15
ATOM     15  O   UNL     1      -3.079  -2.227   0.001  0.00  0.00    -0.506 OA
ATOM     16  H   UNL     1      -2.241  -2.712  -0.001  0.00  0.00    +0.292 HD
ENDBRANCH  14  15
TORSDOF 2
