REMARK  Name = C:\Users\HP\Downloads\Anthraquinone_pdb\AD20.pdb
REMARK  1 active torsions:
REMARK  status: ('A' for Active; 'I' for Inactive)
REMARK    1  A    between atoms: C_10  and  C_17
REMARK                            x       y       z     vdW  Elec       q    Type
REMARK                         _______ _______ _______ _____ _____    ______ ____
ROOT
ATOM      1  O   UNL     1      -0.068   2.603   0.000  0.00  0.00    -0.287 OA
ATOM      2  C   UNL     1      -0.174   1.383  -0.001  0.00  0.00    +0.195 C 
ATOM      3  C   UNL     1      -1.507   0.747  -0.001  0.00  0.00    +0.033 A 
ATOM      4  C   UNL     1      -2.656   1.548   0.000  0.00  0.00    +0.012 A 
ATOM      5  C   UNL     1      -3.919   0.956   0.001  0.00  0.00    +0.001 A 
ATOM      6  C   UNL     1      -4.040  -0.433   0.001  0.00  0.00    +0.001 A 
ATOM      7  C   UNL     1      -2.898  -1.234   0.000  0.00  0.00    +0.012 A 
ATOM      8  C   UNL     1      -1.628  -0.644   0.000  0.00  0.00    +0.033 A 
ATOM      9  C   UNL     1      -0.425  -1.501   0.000  0.00  0.00    +0.195 C 
ATOM     10  C   UNL     1       0.908  -0.865  -0.001  0.00  0.00    +0.033 A 
ATOM     11  C   UNL     1       2.057  -1.666  -0.001  0.00  0.00    +0.013 A 
ATOM     12  C   UNL     1       3.320  -1.073   0.000  0.00  0.00    +0.004 A 
ATOM     13  C   UNL     1       3.441   0.315   0.000  0.00  0.00    -0.050 A 
ATOM     14  C   UNL     1       4.793   0.944   0.002  0.00  0.00    +0.044 C 
ATOM     15  C   UNL     1       2.299   1.117   0.000  0.00  0.00    +0.015 A 
ATOM     16  O   UNL     1      -0.531  -2.721   0.001  0.00  0.00    -0.287 OA
ATOM     17  C   UNL     1       1.029   0.526  -0.001  0.00  0.00    +0.033 A 
ENDROOT
TORSDOF 0
