REMARK  Name = C:\Users\HP\Downloads\Anthraquinone_pdb\AD22.pdb
REMARK  4 active torsions:
REMARK  status: ('A' for Active; 'I' for Inactive)
REMARK    1  A    between atoms: O_1  and  C_8
REMARK    2  A    between atoms: O_1  and  C_20
REMARK    3  A    between atoms: O_2  and  C_14
REMARK    4  A    between atoms: C_12  and  C_17
REMARK                            x       y       z     vdW  Elec       q    Type
REMARK                         _______ _______ _______ _____ _____    ______ ____
ROOT
ATOM      3  C   UNL     1       1.867   0.837  -0.164  0.00  0.00    +0.138 A 
ATOM      4  C   UNL     1       2.971  -0.015  -0.124  0.00  0.00    +0.033 A 
ATOM      5  C   UNL     1       4.356   0.544  -0.194  0.00  0.00    +0.051 C 
ATOM      6  C   UNL     1       2.787  -1.392  -0.019  0.00  0.00    +0.124 A 
ATOM      7  C   UNL     1       1.498  -1.923   0.047  0.00  0.00    +0.058 A 
ATOM      8  C   UNL     1       0.388  -1.072   0.008  0.00  0.00    +0.040 A 
ATOM      9  C   UNL     1      -0.973  -1.643   0.079  0.00  0.00    +0.195 C 
ATOM     10  C   UNL     1      -2.136  -0.733   0.035  0.00  0.00    +0.033 A 
ATOM     11  C   UNL     1      -3.430  -1.261   0.100  0.00  0.00    +0.012 A 
ATOM     12  C   UNL     1      -4.534  -0.409   0.060  0.00  0.00    +0.001 A 
ATOM     13  C   UNL     1      -4.351   0.968  -0.046  0.00  0.00    +0.001 A 
ATOM     14  C   UNL     1      -3.062   1.499  -0.112  0.00  0.00    +0.012 A 
ATOM     15  C   UNL     1      -1.951   0.647  -0.071  0.00  0.00    +0.033 A 
ATOM     16  C   UNL     1      -0.591   1.218  -0.141  0.00  0.00    +0.198 C 
ATOM     17  O   UNL     1      -0.459   2.432  -0.235  0.00  0.00    -0.286 OA
ATOM     18  O   UNL     1      -1.135  -2.853   0.171  0.00  0.00    -0.287 OA
ATOM     21  C   UNL     1       0.572   0.309  -0.098  0.00  0.00    +0.075 A 
ENDROOT
BRANCH   3   1
ATOM      1  O   UNL     1       2.096   2.179  -0.267  0.00  0.00    -0.494 OA
ATOM      2  C   UNL     1       2.232   2.906   0.951  0.00  0.00    +0.277 C 
ENDBRANCH   3   1
BRANCH   6  19
ATOM     19  O   UNL     1       3.855  -2.238   0.020  0.00  0.00    -0.506 OA
ATOM     20  H   UNL     1       3.535  -3.153   0.093  0.00  0.00    +0.292 HD
ENDBRANCH   6  19
TORSDOF 2
