REMARK  8 active torsions:
REMARK  status: ('A' for Active; 'I' for Inactive)
REMARK    1  A    between atoms: O_2  and  C_3 
REMARK    2  A    between atoms: C_4  and  C_5 
REMARK    3  A    between atoms: C_5  and  O_6 
REMARK    4  A    between atoms: C_7  and  O_8 
REMARK    5  A    between atoms: C_12  and  O_13 
REMARK    6  A    between atoms: C_17  and  O_18 
REMARK    7  A    between atoms: C_19  and  O_20 
REMARK    8  A    between atoms: C_22  and  O_23 
ROOT
HETATM    1  C   UNL     1       3.202  -0.431  -1.226  1.00  0.00     0.096 A 
HETATM    2  C   UNL     1       3.725   0.640  -1.985  1.00  0.00     0.051 A 
HETATM    3  C   UNL     1       4.313   0.318  -3.206  1.00  0.00     0.090 A 
HETATM    4  C   UNL     1       4.413  -1.002  -3.643  1.00  0.00     0.026 A 
HETATM    5  C   UNL     1       3.918  -2.080  -2.889  1.00  0.00     0.028 A 
HETATM    6  C   UNL     1       3.353  -1.802  -1.628  1.00  0.00     0.046 A 
HETATM    7  C   UNL     1       2.988  -2.917  -0.824  1.00  0.00     0.091 C 
HETATM    8  C   UNL     1       2.925  -4.237  -1.309  1.00  0.00     0.026 A 
HETATM    9  C   UNL     1       2.320  -5.265  -0.544  1.00  0.00     0.004 A 
HETATM   10  C   UNL     1       2.254  -6.580  -0.995  1.00  0.00     0.026 A 
HETATM   11  C   UNL     1       2.822  -6.880  -2.217  1.00  0.00     0.112 A 
HETATM   12  C   UNL     1       3.413  -5.878  -3.000  1.00  0.00     0.113 A 
HETATM   13  C   UNL     1       3.456  -4.522  -2.581  1.00  0.00     0.048 A 
HETATM   14  C   UNL     1       3.994  -3.435  -3.326  1.00  0.00     0.091 C 
ENDROOT
BRANCH   2  15
HETATM   15  C   UNL     1       3.649   2.052  -1.463  1.00  0.00     0.168 C 
BRANCH  15  16
HETATM   16  O   UNL     1       4.363   2.970  -2.294  1.00  0.00    -0.378 OA
HETATM   17  H   UNL     1       5.279   2.984  -1.954  1.00  0.00     0.211 HD
ENDBRANCH  15  16
ENDBRANCH   2  15
BRANCH   1  18
HETATM   18  O   UNL     1       2.594  -0.112  -0.021  1.00  0.00    -0.328 OA
HETATM   19  C   UNL     1       1.173  -0.352  -0.024  1.00  0.00     0.181 C 
ENDBRANCH   1  18
BRANCH   3  20
HETATM   20  O   UNL     1       4.819   1.256  -4.066  1.00  0.00    -0.359 OA
HETATM   21  H   UNL     1       4.551   2.138  -3.727  1.00  0.00     0.217 HD
ENDBRANCH   3  20
BRANCH   7  22
HETATM   22  O   UNL     1       2.751  -2.755   0.528  1.00  0.00    -0.359 OA
HETATM   23  H   UNL     1       3.107  -1.880   0.775  1.00  0.00     0.217 HD
ENDBRANCH   7  22
BRANCH  14  24
HETATM   24  O   UNL     1       4.600  -3.749  -4.524  1.00  0.00    -0.359 OA
HETATM   25  H   UNL     1       4.745  -2.970  -5.072  1.00  0.00     0.217 HD
ENDBRANCH  14  24
BRANCH  12  26
HETATM   26  O   UNL     1       3.936  -6.281  -4.203  1.00  0.00    -0.357 OA
HETATM   27  H   UNL     1       3.798  -7.247  -4.234  1.00  0.00     0.217 HD
ENDBRANCH  12  26
BRANCH  11  28
HETATM   28  O   UNL     1       2.823  -8.157  -2.710  1.00  0.00    -0.357 OA
HETATM   29  H   UNL     1       2.408  -8.737  -2.048  1.00  0.00     0.217 HD
ENDBRANCH  11  28
TORSDOF 8
