REMARK  Name = C:\Users\HP\Downloads\Anthraquinone_pdb\AD24.pdb
REMARK  4 active torsions:
REMARK  status: ('A' for Active; 'I' for Inactive)
REMARK    1  A    between atoms: O_3  and  C_14
REMARK    2  A    between atoms: O_4  and  C_17
REMARK    3  A    between atoms: O_5  and  C_19
REMARK    4  A    between atoms: C_11  and  C_18
REMARK                            x       y       z     vdW  Elec       q    Type
REMARK                         _______ _______ _______ _____ _____    ______ ____
ROOT
ATOM      1  O   UNL     1      -0.001   2.527  -0.003  0.00  0.00    -0.286 OA
ATOM      2  C   UNL     1      -0.004   1.303   0.000  0.00  0.00    +0.198 C 
ATOM      3  C   UNL     1       1.272   0.559   0.000  0.00  0.00    +0.075 A 
ATOM      4  C   UNL     1       2.483   1.262   0.000  0.00  0.00    +0.132 A 
ATOM      5  C   UNL     1       3.692   0.568   0.000  0.00  0.00    +0.091 A 
ATOM      6  C   UNL     1       3.698  -0.826   0.000  0.00  0.00    +0.121 A 
ATOM      7  C   UNL     1       2.494  -1.531   0.000  0.00  0.00    +0.058 A 
ATOM     12  C   UNL     1       1.278  -0.838   0.000  0.00  0.00    +0.040 A 
ATOM     13  C   UNL     1       0.008  -1.592   0.001  0.00  0.00    +0.195 C 
ATOM     14  C   UNL     1      -1.268  -0.848   0.001  0.00  0.00    +0.037 A 
ATOM     15  C   UNL     1      -2.479  -1.552   0.001  0.00  0.00    +0.057 A 
ATOM     16  C   UNL     1      -3.689  -0.857   0.000  0.00  0.00    +0.118 A 
ATOM     17  C   UNL     1      -3.695   0.537   0.000  0.00  0.00    +0.049 A 
ATOM     18  C   UNL     1      -2.490   1.241   0.000  0.00  0.00    -0.036 A 
ATOM     19  C   UNL     1      -2.607   2.733   0.001  0.00  0.00    +0.044 C 
ATOM     22  O   UNL     1       0.013  -2.817   0.000  0.00  0.00    -0.287 OA
ATOM     23  C   UNL     1      -1.274   0.548   0.000  0.00  0.00    +0.036 A 
ENDROOT
BRANCH   6   8
ATOM      8  O   UNL     1       4.881  -1.500  -0.001  0.00  0.00    -0.507 OA
ATOM      9  H   UNL     1       4.700  -2.456  -0.001  0.00  0.00    +0.292 HD
ENDBRANCH   6   8
BRANCH   4  10
ATOM     10  O   UNL     1       2.552   2.624   0.001  0.00  0.00    -0.506 OA
ATOM     11  H   UNL     1       3.483   2.905   0.001  0.00  0.00    +0.292 HD
ENDBRANCH   4  10
BRANCH  16  20
ATOM     20  O   UNL     1      -4.865  -1.541  -0.002  0.00  0.00    -0.507 OA
ATOM     21  H   UNL     1      -4.676  -2.495  -0.001  0.00  0.00    +0.292 HD
ENDBRANCH  16  20
TORSDOF 3
