REMARK  Name = C:\Users\HP\Downloads\Anthraquinone_pdb\AD25.pdb
REMARK  6 active torsions:
REMARK  status: ('A' for Active; 'I' for Inactive)
REMARK    1  A    between atoms: O_3  and  C_16
REMARK    2  A    between atoms: O_4  and  C_17
REMARK    3  A    between atoms: O_5  and  C_22
REMARK    4  A    between atoms: O_5  and  C_23
REMARK    5  A    between atoms: C_9  and  C_18
REMARK    6  A    between atoms: C_14  and  C_22
REMARK                            x       y       z     vdW  Elec       q    Type
REMARK                         _______ _______ _______ _____ _____    ______ ____
ROOT
ATOM      1  O   UNL     1      -0.923  -2.309  -0.114  0.00  0.00    -0.286 OA
ATOM      2  C   UNL     1      -1.065  -1.094  -0.067  0.00  0.00    +0.198 C 
ATOM      3  C   UNL     1      -2.422  -0.514   0.008  0.00  0.00    +0.074 A 
ATOM      4  C   UNL     1      -3.536  -1.361   0.025  0.00  0.00    +0.128 A 
ATOM      5  C   UNL     1      -4.821  -0.823   0.097  0.00  0.00    +0.046 A 
ATOM      6  C   UNL     1      -4.997   0.559   0.151  0.00  0.00    +0.004 A 
ATOM      7  C   UNL     1      -3.890   1.407   0.135  0.00  0.00    +0.012 A 
ATOM     10  C   UNL     1      -2.599   0.870   0.063  0.00  0.00    +0.037 A 
ATOM     11  C   UNL     1      -1.432   1.776   0.046  0.00  0.00    +0.195 C 
ATOM     12  C   UNL     1      -0.075   1.196  -0.029  0.00  0.00    +0.037 A 
ATOM     13  C   UNL     1       1.039   2.043  -0.044  0.00  0.00    +0.058 A 
ATOM     14  C   UNL     1       2.324   1.504  -0.115  0.00  0.00    +0.132 A 
ATOM     15  C   UNL     1       2.500   0.123  -0.170  0.00  0.00    +0.104 A 
ATOM     20  C   UNL     1       1.393  -0.725  -0.155  0.00  0.00    -0.021 A 
ATOM     21  C   UNL     1       1.661  -2.199  -0.217  0.00  0.00    +0.045 C 
ATOM     24  O   UNL     1      -1.587   2.990   0.095  0.00  0.00    -0.287 OA
ATOM     25  C   UNL     1       0.102  -0.188  -0.084  0.00  0.00    +0.037 A 
ENDROOT
BRANCH   4   8
ATOM      8  O   UNL     1      -3.439  -2.721  -0.026  0.00  0.00    -0.506 OA
ATOM      9  H   UNL     1      -2.513  -2.999  -0.076  0.00  0.00    +0.292 HD
ENDBRANCH   4   8
BRANCH  15  16
ATOM     16  C   UNL     1       3.855  -0.419  -0.243  0.00  0.00    +0.343 C 
ATOM     17  O   UNL     1       4.458  -0.641  -1.297  0.00  0.00    -0.245 OA
BRANCH  16  18
ATOM     18  O   UNL     1       4.367  -0.645   1.003  0.00  0.00    -0.464 OA
ATOM     19  C   UNL     1       5.695  -1.177   1.064  0.00  0.00    +0.280 C 
ENDBRANCH  16  18
ENDBRANCH  15  16
BRANCH  14  22
ATOM     22  O   UNL     1       3.394   2.350  -0.128  0.00  0.00    -0.506 OA
ATOM     23  H   UNL     1       3.076   3.268  -0.083  0.00  0.00    +0.292 HD
ENDBRANCH  14  22
TORSDOF 4
