REMARK  Name = C:\Users\HP\Downloads\Anthraquinone_pdb\AD26.pdb
REMARK  3 active torsions:
REMARK  status: ('A' for Active; 'I' for Inactive)
REMARK    1  A    between atoms: O_3  and  C_13
REMARK    2  A    between atoms: O_4  and  C_16
REMARK    3  A    between atoms: C_10  and  C_17
REMARK                            x       y       z     vdW  Elec       q    Type
REMARK                         _______ _______ _______ _____ _____    ______ ____
ROOT
ATOM      1  O   UNL     1      -0.504   2.409   0.000  0.00  0.00    -0.286 OA
ATOM      2  C   UNL     1      -0.376   1.192   0.001  0.00  0.00    +0.198 C 
ATOM      3  C   UNL     1      -1.570   0.322   0.001  0.00  0.00    +0.074 A 
ATOM      4  C   UNL     1      -2.846   0.898   0.000  0.00  0.00    +0.128 A 
ATOM      5  C   UNL     1      -3.979   0.083  -0.002  0.00  0.00    +0.046 A 
ATOM      6  C   UNL     1      -3.842  -1.304  -0.002  0.00  0.00    +0.004 A 
ATOM      7  C   UNL     1      -2.573  -1.882  -0.001  0.00  0.00    +0.012 A 
ATOM     10  C   UNL     1      -1.433  -1.068   0.001  0.00  0.00    +0.037 A 
ATOM     11  C   UNL     1      -0.093  -1.689   0.001  0.00  0.00    +0.195 C 
ATOM     12  C   UNL     1       1.101  -0.819   0.001  0.00  0.00    +0.037 A 
ATOM     13  C   UNL     1       2.376  -1.396   0.000  0.00  0.00    +0.057 A 
ATOM     14  C   UNL     1       3.509  -0.581  -0.001  0.00  0.00    +0.118 A 
ATOM     15  C   UNL     1       3.373   0.806  -0.001  0.00  0.00    +0.049 A 
ATOM     16  C   UNL     1       2.103   1.384   0.001  0.00  0.00    -0.036 A 
ATOM     17  C   UNL     1       2.067   2.880   0.000  0.00  0.00    +0.044 C 
ATOM     20  O   UNL     1       0.026  -2.908   0.002  0.00  0.00    -0.287 OA
ATOM     21  C   UNL     1       0.964   0.571   0.001  0.00  0.00    +0.036 A 
ENDROOT
BRANCH   4   8
ATOM      8  O   UNL     1      -3.054   2.245   0.000  0.00  0.00    -0.506 OA
ATOM      9  H   UNL     1      -2.212   2.724   0.006  0.00  0.00    +0.292 HD
ENDBRANCH   4   8
BRANCH  14  18
ATOM     18  O   UNL     1       4.750  -1.142  -0.002  0.00  0.00    -0.507 OA
ATOM     19  H   UNL     1       4.658  -2.111  -0.002  0.00  0.00    +0.292 HD
ENDBRANCH  14  18
TORSDOF 2
