REMARK  Name = C:\Users\HP\Downloads\Anthraquinone_pdb\AD27.pdb
REMARK  10 active torsions:
REMARK  status: ('A' for Active; 'I' for Inactive)
REMARK    1  A    between atoms: O_2  and  C_12
REMARK    2  A    between atoms: O_3  and  C_13
REMARK    3  A    between atoms: O_4  and  C_14
REMARK    4  A    between atoms: O_5  and  C_19
REMARK    5  A    between atoms: O_7  and  C_24
REMARK    6  A    between atoms: O_8  and  C_25
REMARK    7  A    between atoms: O_9  and  C_30
REMARK    8  A    between atoms: C_10  and  C_11
REMARK    9  A    between atoms: C_15  and  C_19
REMARK   10  A    between atoms: C_26  and  C_30
REMARK                            x       y       z     vdW  Elec       q    Type
REMARK                         _______ _______ _______ _____ _____    ______ ____
ROOT
ATOM     16  C   UNL     1       4.666  -0.480   0.000  0.00  0.00    +0.082 C 
ATOM     17  C   UNL     1       3.800  -0.980   0.000  0.00  0.00    -0.023 A 
ATOM     18  C   UNL     1       2.906  -0.445   0.000  0.00  0.00    +0.005 A 
ATOM     19  C   UNL     1       2.000  -0.959   0.000  0.00  0.00    +0.004 A 
ATOM     20  C   UNL     1       2.000  -2.000   0.000  0.00  0.00    +0.046 A 
ATOM     21  C   UNL     1       2.906  -2.514   0.000  0.00  0.00    +0.128 A 
ATOM     24  C   UNL     1       3.800  -1.980   0.000  0.00  0.00    +0.068 A 
ATOM     25  C   UNL     1       4.666  -2.480   0.000  0.00  0.00    +0.201 C 
ATOM     26  C   UNL     1       5.532  -1.980   0.000  0.00  0.00    +0.068 A 
ATOM     27  C   UNL     1       6.426  -2.514   0.000  0.00  0.00    +0.128 A 
ATOM     28  C   UNL     1       7.332  -2.000   0.000  0.00  0.00    +0.052 A 
ATOM     29  C   UNL     1       7.332  -0.959   0.000  0.00  0.00    -0.018 A 
ATOM     33  C   UNL     1       6.426  -0.445   0.000  0.00  0.00    +0.011 A 
ATOM     36  O   UNL     1       4.666  -3.480   0.000  0.00  0.00    -0.286 OA
ATOM     37  C   UNL     1       5.532  -0.980   0.000  0.00  0.00    -0.023 A 
ENDROOT
BRANCH  16  15
ATOM      1  O   UNL     1       3.800   1.020   0.000  0.00  0.00    -0.365 OA
ATOM      2  C   UNL     1       3.800   2.020   0.000  0.00  0.00    +0.175 C 
ATOM      6  C   UNL     1       4.666   2.520   0.000  0.00  0.00    +0.176 C 
ATOM      7  C   UNL     1       5.532   2.020   0.000  0.00  0.00    +0.176 C 
ATOM      8  C   UNL     1       5.532   1.020   0.000  0.00  0.00    +0.175 C 
ATOM     15  C   UNL     1       4.666   0.520   0.000  0.00  0.00    +0.162 C 
BRANCH   8   9
ATOM      9  O   UNL     1       6.398   0.520   0.000  0.00  0.00    -0.387 OA
ATOM     10  H   UNL     1       6.935   0.830   0.000  0.00  0.00    +0.210 HD
ENDBRANCH   8   9
BRANCH   7  11
ATOM     11  O   UNL     1       6.398   2.520   0.000  0.00  0.00    -0.386 OA
ATOM     12  H   UNL     1       6.398   3.140   0.000  0.00  0.00    +0.210 HD
ENDBRANCH   7  11
BRANCH   6  13
ATOM     13  O   UNL     1       4.666   3.520   0.000  0.00  0.00    -0.386 OA
ATOM     14  H   UNL     1       5.203   3.830   0.000  0.00  0.00    +0.210 HD
ENDBRANCH   6  13
BRANCH   2   3
ATOM      3  C   UNL     1       2.934   2.520   0.000  0.00  0.00    +0.190 C 
BRANCH   3   4
ATOM      4  O   UNL     1       2.934   3.520   0.000  0.00  0.00    -0.392 OA
ATOM      5  H   UNL     1       2.397   3.830   0.000  0.00  0.00    +0.210 HD
ENDBRANCH   3   4
ENDBRANCH   2   3
ENDBRANCH  16  15
BRANCH  21  22
ATOM     22  O   UNL     1       2.918  -3.514   0.000  0.00  0.00    -0.506 OA
ATOM     23  H   UNL     1       2.384  -3.830   0.000  0.00  0.00    +0.292 HD
ENDBRANCH  21  22
BRANCH  27  34
ATOM     34  O   UNL     1       6.414  -3.514   0.000  0.00  0.00    -0.506 OA
ATOM     35  H   UNL     1       6.948  -3.830   0.000  0.00  0.00    +0.292 HD
ENDBRANCH  27  34
BRANCH  29  30
ATOM     30  C   UNL     1       8.196  -0.456   0.000  0.00  0.00    +0.191 C 
BRANCH  30  31
ATOM     31  O   UNL     1       9.064  -0.952   0.000  0.00  0.00    -0.390 OA
ATOM     32  H   UNL     1       9.600  -0.640   0.000  0.00  0.00    +0.210 HD
ENDBRANCH  30  31
ENDBRANCH  29  30
TORSDOF 10
