REMARK  Name = C:\Users\HP\Downloads\Anthraquinone_pdb\AD28.pdb
REMARK  6 active torsions:
REMARK  status: ('A' for Active; 'I' for Inactive)
REMARK    1  A    between atoms: O_3  and  C_21
REMARK    2  A    between atoms: C_6  and  C_17
REMARK    3  A    between atoms: C_7  and  C_9
REMARK    4  A    between atoms: C_9  and  C_16
REMARK    5  A    between atoms: C_16  and  C_20
REMARK    6  A    between atoms: C_20  and  C_23
REMARK                            x       y       z     vdW  Elec       q    Type
REMARK                         _______ _______ _______ _____ _____    ______ ____
ROOT
ATOM      1  O   UNL     1       0.901   2.233  -0.337  0.00  0.00    -0.287 OA
ATOM      2  C   UNL     1       1.124   1.035  -0.214  0.00  0.00    +0.195 C 
ATOM      3  C   UNL     1       2.519   0.592  -0.013  0.00  0.00    +0.037 A 
ATOM      4  C   UNL     1       3.546   1.542   0.035  0.00  0.00    +0.057 A 
ATOM      5  C   UNL     1       4.866   1.132   0.225  0.00  0.00    +0.118 A 
ATOM      6  C   UNL     1       5.164  -0.222   0.365  0.00  0.00    +0.046 A 
ATOM      7  C   UNL     1       4.143  -1.172   0.318  0.00  0.00    +0.016 A 
ATOM     10  C   UNL     1       2.817  -0.765   0.129  0.00  0.00    +0.033 A 
ATOM     11  C   UNL     1       1.743  -1.777   0.081  0.00  0.00    +0.195 C 
ATOM     12  C   UNL     1       0.348  -1.334  -0.120  0.00  0.00    +0.033 A 
ATOM     13  C   UNL     1      -0.679  -2.284  -0.167  0.00  0.00    +0.013 A 
ATOM     14  C   UNL     1      -1.999  -1.874  -0.356  0.00  0.00    +0.004 A 
ATOM     15  C   UNL     1      -2.297  -0.520  -0.499  0.00  0.00    -0.043 A 
ATOM     21  C   UNL     1      -1.276   0.430  -0.452  0.00  0.00    -0.036 A 
ATOM     22  C   UNL     1      -1.673   1.866  -0.611  0.00  0.00    +0.045 C 
ATOM     23  O   UNL     1       2.004  -2.967   0.206  0.00  0.00    -0.287 OA
ATOM     24  C   UNL     1       0.050   0.023  -0.262  0.00  0.00    +0.036 A 
ENDROOT
BRANCH   5   8
ATOM      8  O   UNL     1       5.865   2.056   0.271  0.00  0.00    -0.507 OA
ATOM      9  H   UNL     1       5.481   2.942   0.156  0.00  0.00    +0.292 HD
ENDBRANCH   5   8
BRANCH  15  16
ATOM     16  C   UNL     1      -3.723  -0.121  -0.702  0.00  0.00    +0.043 C 
BRANCH  16  17
ATOM     17  C   UNL     1      -4.442   0.144   0.625  0.00  0.00    +0.078 C 
BRANCH  17  18
ATOM     18  C   UNL     1      -5.897   0.540   0.440  0.00  0.00    +0.131 C 
ATOM     19  C   UNL     1      -6.684   0.779   1.702  0.00  0.00    +0.086 C 
ATOM     20  O   UNL     1      -6.419   0.666  -0.666  0.00  0.00    -0.298 OA
ENDBRANCH  17  18
ENDBRANCH  16  17
ENDBRANCH  15  16
TORSDOF 4
