REMARK  Name = C:\Users\HP\Downloads\Anthraquinone_pdb\AD29.pdb
REMARK  19 active torsions:
REMARK  status: ('A' for Active; 'I' for Inactive)
REMARK    1  A    between atoms: O_1  and  C_14
REMARK    2  A    between atoms: O_1  and  C_32
REMARK    3  A    between atoms: O_2  and  C_22
REMARK    4  A    between atoms: O_4  and  C_29
REMARK    5  A    between atoms: O_5  and  C_30
REMARK    6  A    between atoms: O_9  and  C_43
REMARK    7  A    between atoms: O_9  and  C_51
REMARK    8  A    between atoms: O_11  and  C_47
REMARK    9  A    between atoms: O_12  and  C_50
REMARK   10  A    between atoms: O_12  and  C_52
REMARK   11  A    between atoms: C_14  and  C_17
REMARK   12  A    between atoms: C_21  and  C_36
REMARK   13  A    between atoms: C_27  and  C_43
REMARK   14  A    between atoms: C_32  and  C_33
REMARK   15  A    between atoms: C_33  and  C_41
REMARK   16  A    between atoms: C_33  and  C_44
REMARK   17  A    between atoms: C_41  and  C_48
REMARK   18  A    between atoms: C_42  and  C_49
REMARK   19  A    between atoms: C_46  and  C_50
REMARK                            x       y       z     vdW  Elec       q    Type
REMARK                         _______ _______ _______ _____ _____    ______ ____
ROOT
ATOM      2  C   UNL     1       0.275  -1.061  -0.933  0.00  0.00    +0.193 C 
ATOM     28  C   UNL     1       0.558  -2.568  -0.651  0.00  0.00    +0.019 A 
ATOM     29  C   UNL     1       1.827  -3.140  -0.466  0.00  0.00    +0.009 A 
ATOM     30  C   UNL     1       1.984  -4.527  -0.230  0.00  0.00    +0.004 A 
ATOM     31  C   UNL     1       0.884  -5.382  -0.166  0.00  0.00    +0.046 A 
ATOM     32  C   UNL     1      -0.379  -4.847  -0.329  0.00  0.00    +0.128 A 
ATOM     35  C   UNL     1      -0.527  -3.470  -0.581  0.00  0.00    +0.071 A 
ATOM     36  C   UNL     1      -1.867  -2.948  -0.828  0.00  0.00    +0.198 C 
ATOM     37  C   UNL     1      -2.191  -1.590  -0.349  0.00  0.00    +0.034 A 
ATOM     38  C   UNL     1      -3.566  -1.265  -0.136  0.00  0.00    -0.022 A 
ATOM     39  C   UNL     1      -4.540  -2.401   0.081  0.00  0.00    +0.045 C 
ATOM     40  C   UNL     1      -3.948   0.089  -0.219  0.00  0.00    +0.104 A 
ATOM     45  C   UNL     1      -2.914   1.052  -0.349  0.00  0.00    +0.132 A 
ATOM     46  C   UNL     1      -1.547   0.709  -0.390  0.00  0.00    +0.055 A 
ATOM     49  O   UNL     1      -2.638  -3.541  -1.574  0.00  0.00    -0.286 OA
ATOM     50  C   UNL     1      -1.152  -0.634  -0.430  0.00  0.00    +0.019 A 
ENDROOT
BRANCH   2   3
ATOM      3  C   UNL     1       0.293  -0.722  -2.498  0.00  0.00    +0.047 A 
ATOM      4  C   UNL     1      -0.871  -0.829  -3.315  0.00  0.00    +0.012 A 
ATOM      5  C   UNL     1      -1.003  -0.171  -4.559  0.00  0.00    +0.013 A 
ATOM      6  C   UNL     1       0.017   0.668  -5.009  0.00  0.00    +0.037 A 
ATOM      7  C   UNL     1      -0.088   1.488  -6.247  0.00  0.00    +0.195 C 
ATOM      8  C   UNL     1       1.076   2.352  -6.640  0.00  0.00    +0.037 A 
ATOM      9  C   UNL     1       1.106   3.046  -7.862  0.00  0.00    +0.058 A 
ATOM     10  C   UNL     1       2.197   3.876  -8.168  0.00  0.00    +0.132 A 
ATOM     11  C   UNL     1       3.306   3.998  -7.303  0.00  0.00    +0.104 A 
ATOM     16  C   UNL     1       3.297   3.278  -6.087  0.00  0.00    -0.021 A 
ATOM     17  C   UNL     1       4.446   3.324  -5.106  0.00  0.00    +0.045 C 
ATOM     20  C   UNL     1       2.153   2.503  -5.762  0.00  0.00    +0.037 A 
ATOM     21  C   UNL     1       2.005   1.921  -4.419  0.00  0.00    +0.198 C 
ATOM     22  O   UNL     1       2.422   2.529  -3.440  0.00  0.00    -0.286 OA
ATOM     23  O   UNL     1      -1.080   1.441  -6.955  0.00  0.00    -0.287 OA
ATOM     24  C   UNL     1       1.162   0.747  -4.233  0.00  0.00    +0.075 A 
ATOM     25  C   UNL     1       1.360  -0.036  -3.083  0.00  0.00    +0.136 A 
BRANCH  11  12
ATOM     12  C   UNL     1       4.439   4.934  -7.613  0.00  0.00    +0.343 C 
ATOM     13  O   UNL     1       5.009   5.604  -6.765  0.00  0.00    -0.245 OA
BRANCH  12  14
ATOM     14  O   UNL     1       4.779   4.878  -8.925  0.00  0.00    -0.464 OA
ATOM     15  C   UNL     1       5.833   5.758  -9.335  0.00  0.00    +0.280 C 
ENDBRANCH  12  14
ENDBRANCH  11  12
BRANCH  10  18
ATOM     18  O   UNL     1       2.149   4.609  -9.325  0.00  0.00    -0.506 OA
ATOM     19  H   UNL     1       1.365   4.370  -9.846  0.00  0.00    +0.292 HD
ENDBRANCH  10  18
BRANCH  25  26
ATOM     26  O   UNL     1       2.636  -0.102  -2.596  0.00  0.00    -0.506 OA
ATOM     27  H   UNL     1       2.605  -0.333  -1.657  0.00  0.00    +0.292 HD
ENDBRANCH  25  26
ENDBRANCH   2   3
BRANCH  32  33
ATOM     33  O   UNL     1      -1.478  -5.647  -0.196  0.00  0.00    -0.506 OA
ATOM     34  H   UNL     1      -1.220  -6.582  -0.224  0.00  0.00    +0.292 HD
ENDBRANCH  32  33
BRANCH  40  41
ATOM     41  C   UNL     1      -5.373   0.586  -0.251  0.00  0.00    +0.343 C 
ATOM     42  O   UNL     1      -5.632   1.781  -0.331  0.00  0.00    -0.245 OA
BRANCH  41  43
ATOM     43  O   UNL     1      -6.304  -0.394  -0.215  0.00  0.00    -0.464 OA
ATOM     44  C   UNL     1      -7.673   0.026  -0.139  0.00  0.00    +0.280 C 
ENDBRANCH  41  43
ENDBRANCH  40  41
BRANCH  45  47
ATOM     47  O   UNL     1      -3.159   2.395  -0.518  0.00  0.00    -0.506 OA
ATOM     48  H   UNL     1      -4.131   2.544  -0.555  0.00  0.00    +0.292 HD
ENDBRANCH  45  47
BRANCH   2   1
ATOM      1  O   UNL     1       1.322  -0.135  -0.367  0.00  0.00    -0.443 OA
BRANCH   1  51
ATOM     51  C   UNL     1       1.736  -0.064   0.925  0.00  0.00    +0.311 C 
ATOM     56  O   UNL     1       1.370  -0.848   1.791  0.00  0.00    -0.250 OA
BRANCH  51  52
ATOM     52  C   UNL     1       2.771   1.074   1.211  0.00  0.00    +0.094 C 
ATOM     53  C   UNL     1       2.916   2.182   0.161  0.00  0.00    +0.019 C 
BRANCH  52  54
ATOM     54  C   UNL     1       4.171   0.549   1.605  0.00  0.00    +0.011 C 
ATOM     55  C   UNL     1       4.869  -0.236   0.507  0.00  0.00    +0.004 C 
ENDBRANCH  52  54
ENDBRANCH  51  52
ENDBRANCH   1  51
ENDBRANCH   2   1
TORSDOF 13
