REMARK  Name = C:\Users\HP\Downloads\Anthraquinone_pdb\AD3.pdb
REMARK  5 active torsions:
REMARK  status: ('A' for Active; 'I' for Inactive)
REMARK    1  A    between atoms: O_1  and  C_13
REMARK    2  A    between atoms: O_4  and  C_15
REMARK    3  A    between atoms: O_5  and  C_18
REMARK    4  A    between atoms: O_5  and  C_21
REMARK    5  A    between atoms: C_14  and  C_20
REMARK                            x       y       z     vdW  Elec       q    Type
REMARK                         _______ _______ _______ _____ _____    ______ ____
ROOT
ATOM      3  C   UNL     1      -2.806  -1.218   0.000  0.00  0.00    +0.129 A 
ATOM      4  C   UNL     1      -3.993  -0.484   0.000  0.00  0.00    +0.049 A 
ATOM      5  C   UNL     1      -3.953   0.909   0.000  0.00  0.00    -0.046 A 
ATOM      6  C   UNL     1      -5.224   1.689  -0.001  0.00  0.00    +0.044 C 
ATOM      7  C   UNL     1      -2.727   1.574   0.000  0.00  0.00    +0.016 A 
ATOM      8  C   UNL     1      -1.534   0.842   0.000  0.00  0.00    +0.037 A 
ATOM      9  C   UNL     1      -0.240   1.555   0.000  0.00  0.00    +0.195 C 
ATOM     10  C   UNL     1       1.011   0.770   0.000  0.00  0.00    +0.040 A 
ATOM     11  C   UNL     1       2.244   1.434   0.000  0.00  0.00    +0.058 A 
ATOM     12  C   UNL     1       3.431   0.700   0.000  0.00  0.00    +0.124 A 
ATOM     13  C   UNL     1       3.392  -0.693  -0.001  0.00  0.00    +0.091 A 
ATOM     14  C   UNL     1       2.165  -1.358  -0.001  0.00  0.00    +0.132 A 
ATOM     19  C   UNL     1       0.972  -0.626   0.000  0.00  0.00    +0.075 A 
ATOM     20  C   UNL     1      -0.322  -1.339   0.000  0.00  0.00    +0.202 C 
ATOM     21  O   UNL     1      -0.356  -2.563   0.001  0.00  0.00    -0.286 OA
ATOM     22  O   UNL     1      -0.205   2.779   0.000  0.00  0.00    -0.287 OA
ATOM     23  C   UNL     1      -1.573  -0.554   0.000  0.00  0.00    +0.075 A 
ENDROOT
BRANCH   3   1
ATOM      1  O   UNL     1      -2.918  -2.577   0.001  0.00  0.00    -0.506 OA
ATOM      2  H   UNL     1      -2.043  -2.994   0.002  0.00  0.00    +0.292 HD
ENDBRANCH   3   1
BRANCH  14  15
ATOM     15  O   UNL     1       2.201  -2.721  -0.001  0.00  0.00    -0.506 OA
ATOM     16  H   UNL     1       3.123  -3.029  -0.001  0.00  0.00    +0.292 HD
ENDBRANCH  14  15
BRANCH  12  17
ATOM     17  O   UNL     1       4.629   1.346   0.001  0.00  0.00    -0.495 OA
ATOM     18  C   UNL     1       5.803   0.536   0.000  0.00  0.00    +0.277 C 
ENDBRANCH  12  17
TORSDOF 3
