REMARK  Name = C:\Users\HP\Downloads\Anthraquinone_pdb\AD30.pdb
REMARK  18 active torsions:
REMARK  status: ('A' for Active; 'I' for Inactive)
REMARK    1  A    between atoms: O_1  and  C_14
REMARK    2  A    between atoms: O_1  and  C_32
REMARK    3  A    between atoms: O_2  and  C_22
REMARK    4  A    between atoms: O_4  and  C_29
REMARK    5  A    between atoms: O_5  and  C_30
REMARK    6  A    between atoms: O_9  and  C_42
REMARK    7  A    between atoms: O_9  and  C_50
REMARK    8  A    between atoms: O_11  and  C_47
REMARK    9  A    between atoms: O_12  and  C_49
REMARK   10  A    between atoms: O_12  and  C_51
REMARK   11  A    between atoms: C_14  and  C_17
REMARK   12  A    between atoms: C_21  and  C_35
REMARK   13  A    between atoms: C_28  and  C_42
REMARK   14  A    between atoms: C_32  and  C_40
REMARK   15  A    between atoms: C_40  and  C_45
REMARK   16  A    between atoms: C_40  and  C_46
REMARK   17  A    between atoms: C_41  and  C_48
REMARK   18  A    between atoms: C_44  and  C_49
REMARK                            x       y       z     vdW  Elec       q    Type
REMARK                         _______ _______ _______ _____ _____    ______ ____
ROOT
ATOM      2  C   UNL     1       0.250   0.528  -1.140  0.00  0.00    +0.193 C 
ATOM     28  C   UNL     1      -1.149  -0.128  -0.915  0.00  0.00    +0.019 A 
ATOM     29  C   UNL     1      -1.324  -1.501  -0.638  0.00  0.00    +0.009 A 
ATOM     30  C   UNL     1      -2.580  -2.119  -0.695  0.00  0.00    +0.004 A 
ATOM     31  C   UNL     1      -3.721  -1.362  -0.906  0.00  0.00    +0.046 A 
ATOM     32  C   UNL     1      -3.596   0.013  -1.074  0.00  0.00    +0.128 A 
ATOM     35  C   UNL     1      -2.324   0.621  -1.128  0.00  0.00    +0.071 A 
ATOM     36  C   UNL     1      -2.201   2.048  -1.487  0.00  0.00    +0.198 C 
ATOM     37  C   UNL     1      -0.991   2.798  -1.066  0.00  0.00    +0.034 A 
ATOM     38  C   UNL     1      -1.034   4.231  -0.989  0.00  0.00    -0.022 A 
ATOM     39  C   UNL     1      -2.372   4.938  -0.948  0.00  0.00    +0.045 C 
ATOM     40  C   UNL     1       0.186   4.939  -0.944  0.00  0.00    +0.104 A 
ATOM     45  C   UNL     1       1.365   4.189  -0.724  0.00  0.00    +0.132 A 
ATOM     46  C   UNL     1       1.367   2.790  -0.635  0.00  0.00    +0.055 A 
ATOM     49  O   UNL     1      -3.021   2.590  -2.218  0.00  0.00    -0.286 OA
ATOM     50  C   UNL     1       0.203   2.058  -0.884  0.00  0.00    +0.019 A 
ENDROOT
BRANCH   2   3
ATOM      3  C   UNL     1       0.741   0.210  -2.614  0.00  0.00    +0.047 A 
ATOM      4  C   UNL     1       1.040   1.176  -3.602  0.00  0.00    +0.012 A 
ATOM      5  C   UNL     1       1.485   0.801  -4.899  0.00  0.00    +0.013 A 
ATOM      6  C   UNL     1       1.508  -0.545  -5.283  0.00  0.00    +0.037 A 
ATOM      7  C   UNL     1       2.006  -1.028  -6.599  0.00  0.00    +0.195 C 
ATOM      8  C   UNL     1       2.023  -2.502  -6.875  0.00  0.00    +0.037 A 
ATOM      9  C   UNL     1       2.573  -2.999  -8.060  0.00  0.00    +0.058 A 
ATOM     10  C   UNL     1       2.517  -4.375  -8.337  0.00  0.00    +0.132 A 
ATOM     11  C   UNL     1       1.983  -5.295  -7.411  0.00  0.00    +0.104 A 
ATOM     16  C   UNL     1       1.506  -4.810  -6.173  0.00  0.00    -0.021 A 
ATOM     17  C   UNL     1       1.040  -5.740  -5.076  0.00  0.00    +0.045 C 
ATOM     20  C   UNL     1       1.476  -3.405  -5.959  0.00  0.00    +0.037 A 
ATOM     21  C   UNL     1       0.786  -2.842  -4.791  0.00  0.00    +0.198 C 
ATOM     22  O   UNL     1      -0.155  -3.431  -4.274  0.00  0.00    -0.286 OA
ATOM     23  O   UNL     1       2.457  -0.237  -7.418  0.00  0.00    -0.287 OA
ATOM     24  C   UNL     1       1.111  -1.484  -4.355  0.00  0.00    +0.075 A 
ATOM     25  C   UNL     1       0.907  -1.125  -3.023  0.00  0.00    +0.136 A 
BRANCH  11  12
ATOM     12  C   UNL     1       1.817  -6.746  -7.760  0.00  0.00    +0.343 C 
ATOM     13  O   UNL     1       0.845  -7.408  -7.431  0.00  0.00    -0.245 OA
BRANCH  12  14
ATOM     14  O   UNL     1       2.892  -7.216  -8.442  0.00  0.00    -0.464 OA
ATOM     15  C   UNL     1       2.780  -8.563  -8.915  0.00  0.00    +0.280 C 
ENDBRANCH  12  14
ENDBRANCH  11  12
BRANCH  10  18
ATOM     18  O   UNL     1       2.969  -4.806  -9.556  0.00  0.00    -0.506 OA
ATOM     19  H   UNL     1       3.359  -4.068 -10.054  0.00  0.00    +0.292 HD
ENDBRANCH  10  18
BRANCH  25  26
ATOM     26  O   UNL     1       1.057  -2.150  -2.120  0.00  0.00    -0.506 OA
ATOM     27  H   UNL     1       1.410  -1.760  -1.303  0.00  0.00    +0.292 HD
ENDBRANCH  25  26
ENDBRANCH   2   3
BRANCH  32  33
ATOM     33  O   UNL     1      -4.737   0.762  -1.161  0.00  0.00    -0.506 OA
ATOM     34  H   UNL     1      -5.515   0.182  -1.178  0.00  0.00    +0.292 HD
ENDBRANCH  32  33
BRANCH  40  41
ATOM     41  C   UNL     1       0.355   6.421  -1.170  0.00  0.00    +0.343 C 
ATOM     42  O   UNL     1       1.464   6.942  -1.092  0.00  0.00    -0.245 OA
BRANCH  41  43
ATOM     43  O   UNL     1      -0.767   7.090  -1.529  0.00  0.00    -0.464 OA
ATOM     44  C   UNL     1      -0.591   8.496  -1.740  0.00  0.00    +0.280 C 
ENDBRANCH  41  43
ENDBRANCH  40  41
BRANCH  45  47
ATOM     47  O   UNL     1       2.615   4.752  -0.626  0.00  0.00    -0.506 OA
ATOM     48  H   UNL     1       2.542   5.721  -0.786  0.00  0.00    +0.292 HD
ENDBRANCH  45  47
BRANCH   2   1
ATOM      1  O   UNL     1       1.318  -0.158  -0.370  0.00  0.00    -0.443 OA
BRANCH   1  51
ATOM     51  C   UNL     1       1.385  -0.185   0.992  0.00  0.00    +0.311 C 
ATOM     55  O   UNL     1       0.600   0.396   1.716  0.00  0.00    -0.251 OA
BRANCH  51  52
ATOM     52  C   UNL     1       2.485  -1.154   1.469  0.00  0.00    +0.092 C 
ATOM     53  C   UNL     1       2.831  -0.929   2.944  0.00  0.00    +0.019 C 
ATOM     54  C   UNL     1       3.776  -1.093   0.648  0.00  0.00    +0.019 C 
ENDBRANCH  51  52
ENDBRANCH   1  51
ENDBRANCH   2   1
TORSDOF 12
