REMARK  Name = C:\Users\HP\Downloads\Anthraquinone_pdb\AD31.pdb
REMARK  14 active torsions:
REMARK  status: ('A' for Active; 'I' for Inactive)
REMARK    1  A    between atoms: O_1  and  C_13
REMARK    2  A    between atoms: O_2  and  C_20
REMARK    3  A    between atoms: O_4  and  C_28
REMARK    4  A    between atoms: O_5  and  C_29
REMARK    5  A    between atoms: O_8  and  C_40
REMARK    6  A    between atoms: O_8  and  C_45
REMARK    7  A    between atoms: O_10  and  C_42
REMARK    8  A    between atoms: O_11  and  C_44
REMARK    9  A    between atoms: O_11  and  C_46
REMARK   10  A    between atoms: C_13  and  C_16
REMARK   11  A    between atoms: C_21  and  C_36
REMARK   12  A    between atoms: C_27  and  C_40
REMARK   13  A    between atoms: C_38  and  C_43
REMARK   14  A    between atoms: C_41  and  C_44
REMARK                            x       y       z     vdW  Elec       q    Type
REMARK                         _______ _______ _______ _____ _____    ______ ____
ROOT
ATOM      2  C   UNL     1      -2.406  -1.369  -1.206  0.00  0.00    +0.146 C 
ATOM     28  C   UNL     1      -2.556  -2.528  -0.221  0.00  0.00    +0.007 A 
ATOM     29  C   UNL     1      -2.118  -3.818  -0.586  0.00  0.00    +0.008 A 
ATOM     30  C   UNL     1      -2.216  -4.892   0.298  0.00  0.00    +0.004 A 
ATOM     31  C   UNL     1      -2.753  -4.699   1.566  0.00  0.00    +0.046 A 
ATOM     32  C   UNL     1      -3.193  -3.433   1.948  0.00  0.00    +0.128 A 
ATOM     35  C   UNL     1      -3.096  -2.353   1.058  0.00  0.00    +0.070 A 
ATOM     36  C   UNL     1      -3.581  -1.028   1.489  0.00  0.00    +0.198 C 
ATOM     37  C   UNL     1      -3.611   0.088   0.523  0.00  0.00    +0.033 A 
ATOM     38  C   UNL     1      -4.192   1.305   0.912  0.00  0.00    -0.022 A 
ATOM     39  C   UNL     1      -4.797   1.527   2.267  0.00  0.00    +0.045 C 
ATOM     40  C   UNL     1      -4.245   2.374   0.020  0.00  0.00    +0.104 A 
ATOM     45  C   UNL     1      -3.720   2.235  -1.259  0.00  0.00    +0.131 A 
ATOM     46  C   UNL     1      -3.139   1.027  -1.645  0.00  0.00    +0.054 A 
ATOM     49  O   UNL     1      -3.967  -0.857   2.640  0.00  0.00    -0.286 OA
ATOM     50  C   UNL     1      -3.072  -0.069  -0.760  0.00  0.00    +0.007 A 
ENDROOT
BRANCH   2   3
ATOM      3  C   UNL     1      -0.915  -1.121  -1.514  0.00  0.00    +0.035 A 
ATOM      4  C   UNL     1      -0.470  -1.235  -2.829  0.00  0.00    +0.011 A 
ATOM      5  C   UNL     1       0.873  -1.014  -3.135  0.00  0.00    +0.013 A 
ATOM      6  C   UNL     1       1.776  -0.677  -2.119  0.00  0.00    +0.037 A 
ATOM      7  C   UNL     1       3.196  -0.446  -2.452  0.00  0.00    +0.195 C 
ATOM      8  C   UNL     1       4.137  -0.091  -1.371  0.00  0.00    +0.037 A 
ATOM      9  C   UNL     1       5.486   0.130  -1.673  0.00  0.00    +0.058 A 
ATOM     10  C   UNL     1       6.383   0.465  -0.658  0.00  0.00    +0.132 A 
ATOM     11  C   UNL     1       5.938   0.578   0.658  0.00  0.00    +0.104 A 
ATOM     16  C   UNL     1       4.595   0.358   0.963  0.00  0.00    -0.021 A 
ATOM     17  C   UNL     1       4.191   0.499   2.401  0.00  0.00    +0.045 C 
ATOM     20  C   UNL     1       3.691   0.023  -0.052  0.00  0.00    +0.037 A 
ATOM     21  C   UNL     1       2.271  -0.208   0.281  0.00  0.00    +0.198 C 
ATOM     22  O   UNL     1       1.870  -0.108   1.433  0.00  0.00    -0.286 OA
ATOM     23  O   UNL     1       3.586  -0.546  -3.609  0.00  0.00    -0.287 OA
ATOM     24  C   UNL     1       1.329  -0.563  -0.801  0.00  0.00    +0.075 A 
ATOM     25  C   UNL     1      -0.019  -0.785  -0.498  0.00  0.00    +0.135 A 
BRANCH  11  12
ATOM     12  C   UNL     1       6.894   0.929   1.704  0.00  0.00    +0.343 C 
ATOM     13  O   UNL     1       7.146   0.217   2.681  0.00  0.00    -0.245 OA
BRANCH  12  14
ATOM     14  O   UNL     1       7.473   2.143   1.462  0.00  0.00    -0.464 OA
ATOM     15  C   UNL     1       8.433   2.598   2.422  0.00  0.00    +0.280 C 
ENDBRANCH  12  14
ENDBRANCH  11  12
BRANCH  10  18
ATOM     18  O   UNL     1       7.691   0.675  -0.978  0.00  0.00    -0.506 OA
ATOM     19  H   UNL     1       8.212   0.878  -0.184  0.00  0.00    +0.292 HD
ENDBRANCH  10  18
BRANCH  25  26
ATOM     26  O   UNL     1      -0.509  -0.687   0.772  0.00  0.00    -0.506 OA
ATOM     27  H   UNL     1       0.193  -0.469   1.402  0.00  0.00    +0.292 HD
ENDBRANCH  25  26
ENDBRANCH   2   3
BRANCH   2   1
ATOM      1  O   UNL     1      -3.110  -1.725  -2.413  0.00  0.00    -0.375 OA
ATOM     51  H   UNL     1      -3.709  -2.470  -2.239  0.00  0.00    +0.211 HD
ENDBRANCH   2   1
BRANCH  32  33
ATOM     33  O   UNL     1      -3.720  -3.322   3.201  0.00  0.00    -0.506 OA
ATOM     34  H   UNL     1      -4.102  -2.442   3.337  0.00  0.00    +0.292 HD
ENDBRANCH  32  33
BRANCH  40  41
ATOM     41  C   UNL     1      -4.850   3.645   0.408  0.00  0.00    +0.343 C 
ATOM     42  O   UNL     1      -4.458   4.342   1.349  0.00  0.00    -0.245 OA
BRANCH  41  43
ATOM     43  O   UNL     1      -5.904   3.962  -0.402  0.00  0.00    -0.464 OA
ATOM     44  C   UNL     1      -6.582   5.191  -0.121  0.00  0.00    +0.280 C 
ENDBRANCH  41  43
ENDBRANCH  40  41
BRANCH  45  47
ATOM     47  O   UNL     1      -3.759   3.264  -2.152  0.00  0.00    -0.506 OA
ATOM     48  H   UNL     1      -3.346   2.979  -2.986  0.00  0.00    +0.292 HD
ENDBRANCH  45  47
TORSDOF 10
