REMARK  Name = C:\Users\HP\Downloads\Anthraquinone_pdb\AD32.pdb
REMARK  32 active torsions:
REMARK  status: ('A' for Active; 'I' for Inactive)
REMARK    1  A    between atoms: O_1  and  C_21
REMARK    2  A    between atoms: O_1  and  C_50
REMARK    3  A    between atoms: O_2  and  C_22
REMARK    4  A    between atoms: O_2  and  C_54
REMARK    5  A    between atoms: O_3  and  C_31
REMARK    6  A    between atoms: O_5  and  C_40
REMARK    7  A    between atoms: O_7  and  C_46
REMARK    8  A    between atoms: O_8  and  C_48
REMARK    9  A    between atoms: O_9  and  C_51
REMARK   10  A    between atoms: O_12  and  C_66
REMARK   11  A    between atoms: O_12  and  C_79
REMARK   12  A    between atoms: O_15  and  C_69
REMARK   13  A    between atoms: O_15  and  C_80
REMARK   14  A    between atoms: O_18  and  C_76
REMARK   15  A    between atoms: O_19  and  C_78
REMARK   16  A    between atoms: O_19  and  C_81
REMARK   17  A    between atoms: C_21  and  C_30
REMARK   18  A    between atoms: C_22  and  C_24
REMARK   19  A    between atoms: C_37  and  C_55
REMARK   20  A    between atoms: C_42  and  C_60
REMARK   21  A    between atoms: C_45  and  C_66
REMARK   22  A    between atoms: C_49  and  C_69
REMARK   23  A    between atoms: C_50  and  C_56
REMARK   24  A    between atoms: C_54  and  C_57
REMARK   25  A    between atoms: C_56  and  C_65
REMARK   26  A    between atoms: C_56  and  C_68
REMARK   27  A    between atoms: C_57  and  C_67
REMARK   28  A    between atoms: C_57  and  C_70
REMARK   29  A    between atoms: C_65  and  C_73
REMARK   30  A    between atoms: C_67  and  C_75
REMARK   31  A    between atoms: C_71  and  C_77
REMARK   32  A    between atoms: C_74  and  C_78
REMARK                            x       y       z     vdW  Elec       q    Type
REMARK                         _______ _______ _______ _____ _____    ______ ____
ROOT
ATOM      2  C   UNL     1       9.826  -1.362   0.000  0.00  0.00    +0.193 C 
ATOM     28  C   UNL     1      10.692  -1.862   0.000  0.00  0.00    +0.019 A 
ATOM     29  C   UNL     1      11.586  -1.328   0.000  0.00  0.00    +0.055 A 
ATOM     30  C   UNL     1      12.492  -1.841   0.000  0.00  0.00    +0.132 A 
ATOM     31  C   UNL     1      12.492  -2.883   0.000  0.00  0.00    +0.104 A 
ATOM     36  C   UNL     1      11.586  -3.397   0.000  0.00  0.00    -0.022 A 
ATOM     37  C   UNL     1      11.575  -4.397   0.000  0.00  0.00    +0.045 C 
ATOM     40  C   UNL     1      10.692  -2.862   0.000  0.00  0.00    +0.034 A 
ATOM     41  C   UNL     1       9.826  -3.362   0.000  0.00  0.00    +0.198 C 
ATOM     42  C   UNL     1       8.960  -2.862   0.000  0.00  0.00    +0.072 A 
ATOM     43  C   UNL     1       8.066  -3.397   0.000  0.00  0.00    +0.136 A 
ATOM     44  C   UNL     1       7.160  -2.883   0.000  0.00  0.00    +0.047 A 
ATOM     45  C   UNL     1       7.160  -1.841   0.000  0.00  0.00    +0.012 A 
ATOM     46  C   UNL     1       8.066  -1.328   0.000  0.00  0.00    +0.009 A 
ATOM     80  O   UNL     1       9.826  -4.362   0.000  0.00  0.00    -0.286 OA
ATOM     81  C   UNL     1       8.960  -1.862   0.000  0.00  0.00    +0.019 A 
ENDROOT
BRANCH   2   3
ATOM      3  C   UNL     1      10.469  -0.596   0.000  0.00  0.00    +0.047 A 
ATOM      4  C   UNL     1      11.496  -0.773   0.000  0.00  0.00    +0.012 A 
ATOM      5  C   UNL     1      12.156   0.033   0.000  0.00  0.00    +0.013 A 
ATOM      6  C   UNL     1      11.781   1.004   0.000  0.00  0.00    +0.037 A 
ATOM      7  C   UNL     1      12.421   1.773   0.000  0.00  0.00    +0.195 C 
ATOM      8  C   UNL     1      12.075   2.711   0.000  0.00  0.00    +0.037 A 
ATOM      9  C   UNL     1      12.754   3.501   0.000  0.00  0.00    +0.058 A 
ATOM     10  C   UNL     1      12.401   4.481   0.000  0.00  0.00    +0.132 A 
ATOM     11  C   UNL     1      11.375   4.658   0.000  0.00  0.00    +0.104 A 
ATOM     16  C   UNL     1      10.714   3.853   0.000  0.00  0.00    -0.021 A 
ATOM     17  C   UNL     1       9.727   4.011   0.000  0.00  0.00    +0.045 C 
ATOM     20  C   UNL     1      11.090   2.881   0.000  0.00  0.00    +0.037 A 
ATOM     21  C   UNL     1      10.450   2.112   0.000  0.00  0.00    +0.198 C 
ATOM     22  O   UNL     1       9.464   2.282   0.000  0.00  0.00    -0.286 OA
ATOM     23  O   UNL     1      13.406   1.603   0.000  0.00  0.00    -0.287 OA
ATOM     24  C   UNL     1      10.795   1.174   0.000  0.00  0.00    +0.075 A 
ATOM     25  C   UNL     1      10.117   0.384   0.000  0.00  0.00    +0.136 A 
BRANCH  11  12
ATOM     12  C   UNL     1      11.025   5.595   0.000  0.00  0.00    +0.343 C 
ATOM     13  O   UNL     1      10.039   5.761   0.000  0.00  0.00    -0.245 OA
BRANCH  12  14
ATOM     14  O   UNL     1      11.662   6.366   0.000  0.00  0.00    -0.464 OA
ATOM     15  C   UNL     1      11.313   7.303   0.000  0.00  0.00    +0.280 C 
ENDBRANCH  12  14
ENDBRANCH  11  12
BRANCH  10  18
ATOM     18  O   UNL     1      13.044   5.247   0.000  0.00  0.00    -0.506 OA
ATOM     19  H   UNL     1      13.655   5.140   0.000  0.00  0.00    +0.292 HD
ENDBRANCH  10  18
BRANCH  25  26
ATOM     26  O   UNL     1       9.133   0.565   0.000  0.00  0.00    -0.506 OA
ATOM     27  H   UNL     1       8.731   0.093   0.000  0.00  0.00    +0.292 HD
ENDBRANCH  25  26
ENDBRANCH   2   3
BRANCH  44  47
ATOM     47  C   UNL     1       6.222  -3.229   0.000  0.00  0.00    +0.193 C 
ATOM     48  C   UNL     1       5.876  -2.290   0.000  0.00  0.00    +0.019 A 
ATOM     49  C   UNL     1       6.555  -1.500   0.000  0.00  0.00    +0.009 A 
ATOM     50  C   UNL     1       6.202  -0.520   0.000  0.00  0.00    +0.004 A 
ATOM     51  C   UNL     1       5.176  -0.343   0.000  0.00  0.00    +0.046 A 
ATOM     52  C   UNL     1       4.516  -1.149   0.000  0.00  0.00    +0.128 A 
ATOM     55  C   UNL     1       4.891  -2.120   0.000  0.00  0.00    +0.071 A 
ATOM     56  C   UNL     1       4.251  -2.889   0.000  0.00  0.00    +0.198 C 
ATOM     57  C   UNL     1       4.597  -3.827   0.000  0.00  0.00    +0.034 A 
ATOM     58  C   UNL     1       3.918  -4.617   0.000  0.00  0.00    -0.022 A 
ATOM     59  C   UNL     1       2.934  -4.436   0.000  0.00  0.00    +0.045 C 
ATOM     60  C   UNL     1       4.270  -5.598   0.000  0.00  0.00    +0.104 A 
ATOM     65  C   UNL     1       5.297  -5.775   0.000  0.00  0.00    +0.132 A 
ATOM     66  C   UNL     1       5.957  -4.969   0.000  0.00  0.00    +0.055 A 
ATOM     69  O   UNL     1       3.265  -2.719   0.000  0.00  0.00    -0.286 OA
ATOM     70  C   UNL     1       5.582  -3.997   0.000  0.00  0.00    +0.019 A 
BRANCH  52  53
ATOM     53  O   UNL     1       3.528  -0.990   0.000  0.00  0.00    -0.506 OA
ATOM     54  H   UNL     1       3.307  -0.411   0.000  0.00  0.00    +0.292 HD
ENDBRANCH  52  53
BRANCH  60  61
ATOM     61  C   UNL     1       3.628  -6.364   0.000  0.00  0.00    +0.343 C 
ATOM     62  O   UNL     1       3.970  -7.303   0.000  0.00  0.00    -0.245 OA
BRANCH  61  63
ATOM     63  O   UNL     1       2.643  -6.190   0.000  0.00  0.00    -0.464 OA
ATOM     64  C   UNL     1       2.000  -6.956   0.000  0.00  0.00    +0.280 C 
ENDBRANCH  61  63
ENDBRANCH  60  61
BRANCH  65  67
ATOM     67  O   UNL     1       5.646  -6.712   0.000  0.00  0.00    -0.506 OA
ATOM     68  H   UNL     1       5.251  -7.190   0.000  0.00  0.00    +0.292 HD
ENDBRANCH  65  67
BRANCH  47  71
ATOM     71  O   UNL     1       6.990  -3.869   0.000  0.00  0.00    -0.443 OA
BRANCH  71  72
ATOM     72  C   UNL     1       6.821  -4.854   0.000  0.00  0.00    +0.311 C 
ATOM     77  O   UNL     1       6.651  -5.839   0.000  0.00  0.00    -0.250 OA
BRANCH  72  73
ATOM     73  C   UNL     1       7.589  -5.494   0.000  0.00  0.00    +0.094 C 
ATOM     74  C   UNL     1       8.527  -5.148   0.000  0.00  0.00    +0.019 C 
BRANCH  73  75
ATOM     75  C   UNL     1       7.419  -6.479   0.000  0.00  0.00    +0.011 C 
ATOM     76  C   UNL     1       8.188  -7.119   0.000  0.00  0.00    +0.004 C 
ENDBRANCH  73  75
ENDBRANCH  72  73
ENDBRANCH  71  72
ENDBRANCH  47  71
ENDBRANCH  44  47
BRANCH  31  32
ATOM     32  C   UNL     1      13.357  -3.386   0.000  0.00  0.00    +0.343 C 
ATOM     33  O   UNL     1      13.353  -4.386   0.000  0.00  0.00    -0.245 OA
BRANCH  32  34
ATOM     34  O   UNL     1      14.224  -2.890   0.000  0.00  0.00    -0.464 OA
ATOM     35  C   UNL     1      15.089  -3.393   0.000  0.00  0.00    +0.280 C 
ENDBRANCH  32  34
ENDBRANCH  31  32
BRANCH  30  38
ATOM     38  O   UNL     1      13.357  -1.338   0.000  0.00  0.00    -0.506 OA
ATOM     39  H   UNL     1      13.895  -1.646   0.000  0.00  0.00    +0.292 HD
ENDBRANCH  30  38
BRANCH  43  78
ATOM     78  O   UNL     1       8.078  -4.397   0.000  0.00  0.00    -0.506 OA
ATOM     79  H   UNL     1       7.545  -4.713   0.000  0.00  0.00    +0.292 HD
ENDBRANCH  43  78
BRANCH   2   1
ATOM      1  O   UNL     1       9.326  -0.496   0.000  0.00  0.00    -0.443 OA
BRANCH   1  82
ATOM     82  C   UNL     1       8.326  -0.496   0.000  0.00  0.00    +0.311 C 
ATOM     87  O   UNL     1       7.326  -0.496   0.000  0.00  0.00    -0.250 OA
BRANCH  82  83
ATOM     83  C   UNL     1       7.826   0.370   0.000  0.00  0.00    +0.094 C 
ATOM     84  C   UNL     1       8.326   1.236   0.000  0.00  0.00    +0.019 C 
BRANCH  83  85
ATOM     85  C   UNL     1       6.826   0.370   0.000  0.00  0.00    +0.011 C 
ATOM     86  C   UNL     1       6.326   1.236   0.000  0.00  0.00    +0.004 C 
ENDBRANCH  83  85
ENDBRANCH  82  83
ENDBRANCH   1  82
ENDBRANCH   2   1
TORSDOF 22
