REMARK  Name = C:\Users\HP\Downloads\Anthraquinone_pdb\AD33.pdb
REMARK  10 active torsions:
REMARK  status: ('A' for Active; 'I' for Inactive)
REMARK    1  A    between atoms: O_1  and  C_18
REMARK    2  A    between atoms: O_4  and  C_20
REMARK    3  A    between atoms: O_5  and  C_21
REMARK    4  A    between atoms: O_6  and  C_26
REMARK    5  A    between atoms: O_6  and  C_32
REMARK    6  A    between atoms: O_7  and  C_24
REMARK    7  A    between atoms: C_10  and  C_13
REMARK    8  A    between atoms: C_12  and  C_22
REMARK    9  A    between atoms: C_23  and  C_30
REMARK   10  A    between atoms: C_30  and  C_31
REMARK                            x       y       z     vdW  Elec       q    Type
REMARK                         _______ _______ _______ _____ _____    ______ ____
ROOT
ATOM      3  C   UNL     1      -2.186  -2.732  -0.189  0.00  0.00    +0.129 A 
ATOM      4  C   UNL     1      -0.982  -3.430  -0.089  0.00  0.00    +0.050 A 
ATOM      5  C   UNL     1       0.212  -2.739   0.105  0.00  0.00    -0.038 A 
ATOM      6  C   UNL     1       1.474  -3.538   0.203  0.00  0.00    +0.044 C 
ATOM      7  C   UNL     1       0.208  -1.347   0.201  0.00  0.00    +0.004 A 
ATOM     23  C   UNL     1      -0.998  -0.643   0.102  0.00  0.00    +0.045 A 
ATOM     24  C   UNL     1      -0.994   0.831   0.204  0.00  0.00    +0.195 C 
ATOM     25  C   UNL     1      -2.273   1.561   0.100  0.00  0.00    +0.037 A 
ATOM     26  C   UNL     1      -2.283   2.958   0.197  0.00  0.00    +0.012 A 
ATOM     27  C   UNL     1      -3.487   3.655   0.100  0.00  0.00    +0.004 A 
ATOM     28  C   UNL     1      -4.681   2.964  -0.095  0.00  0.00    +0.046 A 
ATOM     29  C   UNL     1      -4.676   1.572  -0.193  0.00  0.00    +0.128 A 
ATOM     32  C   UNL     1      -3.470   0.868  -0.095  0.00  0.00    +0.075 A 
ATOM     33  C   UNL     1      -3.475  -0.605  -0.199  0.00  0.00    +0.202 C 
ATOM     34  O   UNL     1      -4.524  -1.213  -0.368  0.00  0.00    -0.286 OA
ATOM     35  O   UNL     1       0.029   1.483   0.374  0.00  0.00    -0.287 OA
ATOM     36  C   UNL     1      -2.195  -1.335  -0.093  0.00  0.00    +0.075 A 
ENDROOT
BRANCH   7   8
ATOM      8  C   UNL     1       1.495  -0.700   0.403  0.00  0.00    +0.067 A 
ATOM      9  C   UNL     1       1.961  -0.474   1.697  0.00  0.00    +0.132 A 
ATOM     10  C   UNL     1       3.195   0.146   1.893  0.00  0.00    +0.092 A 
ATOM     11  C   UNL     1       3.960   0.539   0.795  0.00  0.00    +0.138 A 
ATOM     12  C   UNL     1       3.491   0.312  -0.499  0.00  0.00    +0.101 A 
ATOM     20  C   UNL     1       2.257  -0.308  -0.696  0.00  0.00    +0.142 A 
BRANCH  12  13
ATOM     13  C   UNL     1       4.294   0.725  -1.646  0.00  0.00    +0.167 C 
ATOM     14  C   UNL     1       5.307  -0.235  -2.254  0.00  0.00    +0.092 C 
ATOM     15  O   UNL     1       4.171   1.858  -2.147  0.00  0.00    -0.292 OA
ENDBRANCH  12  13
BRANCH  11  16
ATOM     16  O   UNL     1       5.163   1.144   1.009  0.00  0.00    -0.494 OA
ATOM     17  C   UNL     1       5.162   2.566   1.119  0.00  0.00    +0.277 C 
ENDBRANCH  11  16
BRANCH   9  18
ATOM     18  O   UNL     1       1.235  -0.847   2.789  0.00  0.00    -0.506 OA
ATOM     19  H   UNL     1       0.395  -1.257   2.531  0.00  0.00    +0.292 HD
ENDBRANCH   9  18
BRANCH  20  21
ATOM     21  O   UNL     1       1.805  -0.527  -1.966  0.00  0.00    -0.505 OA
ATOM     22  H   UNL     1       2.426  -0.174  -2.623  0.00  0.00    +0.292 HD
ENDBRANCH  20  21
ENDBRANCH   7   8
BRANCH   3   1
ATOM      1  O   UNL     1      -3.316  -3.471  -0.379  0.00  0.00    -0.506 OA
ATOM      2  H   UNL     1      -3.088  -4.416  -0.416  0.00  0.00    +0.292 HD
ENDBRANCH   3   1
BRANCH  29  30
ATOM     30  O   UNL     1      -5.880   0.962  -0.383  0.00  0.00    -0.506 OA
ATOM     31  H   UNL     1      -5.773   0.001  -0.444  0.00  0.00    +0.292 HD
ENDBRANCH  29  30
TORSDOF 7
