REMARK  Name = C:\Users\HP\Downloads\Anthraquinone_pdb\AD34.pdb
REMARK  15 active torsions:
REMARK  status: ('A' for Active; 'I' for Inactive)
REMARK    1  A    between atoms: O_1  and  C_28
REMARK    2  A    between atoms: O_1  and  C_33
REMARK    3  A    between atoms: O_4  and  C_23
REMARK    4  A    between atoms: O_5  and  C_24
REMARK    5  A    between atoms: O_6  and  C_25
REMARK    6  A    between atoms: O_8  and  C_29
REMARK    7  A    between atoms: O_10  and  C_37
REMARK    8  A    between atoms: O_11  and  C_38
REMARK    9  A    between atoms: O_12  and  C_40
REMARK   10  A    between atoms: O_13  and  C_42
REMARK   11  A    between atoms: C_15  and  C_17
REMARK   12  A    between atoms: C_22  and  C_35
REMARK   13  A    between atoms: C_26  and  C_32
REMARK   14  A    between atoms: C_32  and  C_41
REMARK   15  A    between atoms: C_39  and  C_42
REMARK                            x       y       z     vdW  Elec       q    Type
REMARK                         _______ _______ _______ _____ _____    ______ ____
ROOT
ATOM     17  C   UNL     1       0.469  -1.179  -0.740  0.00  0.00    +0.141 A 
ATOM     18  C   UNL     1      -0.858  -1.027  -1.146  0.00  0.00    +0.092 A 
ATOM     19  C   UNL     1      -1.587  -2.095  -1.689  0.00  0.00    +0.132 A 
ATOM     20  C   UNL     1      -0.996  -3.317  -2.051  0.00  0.00    +0.067 A 
ATOM     21  C   UNL     1       0.387  -3.392  -1.741  0.00  0.00    +0.142 A 
ATOM     47  C   UNL     1       1.058  -2.441  -0.923  0.00  0.00    +0.101 A 
ENDROOT
BRANCH  20  24
ATOM     24  C   UNL     1      -1.757  -4.488  -2.659  0.00  0.00    +0.004 A 
ATOM     25  C   UNL     1      -2.730  -4.316  -3.692  0.00  0.00    -0.038 A 
ATOM     26  C   UNL     1      -3.081  -3.008  -4.368  0.00  0.00    +0.044 C 
ATOM     27  C   UNL     1      -3.477  -5.420  -4.166  0.00  0.00    +0.050 A 
ATOM     28  C   UNL     1      -3.194  -6.716  -3.771  0.00  0.00    +0.129 A 
ATOM     29  C   UNL     1      -2.179  -6.946  -2.853  0.00  0.00    +0.075 A 
ATOM     30  C   UNL     1      -1.763  -8.338  -2.554  0.00  0.00    +0.202 C 
ATOM     31  C   UNL     1      -0.496  -8.588  -1.853  0.00  0.00    +0.075 A 
ATOM     32  C   UNL     1       0.118  -9.848  -1.842  0.00  0.00    +0.128 A 
ATOM     33  C   UNL     1       1.348 -10.029  -1.213  0.00  0.00    +0.046 A 
ATOM     34  C   UNL     1       1.958  -8.953  -0.574  0.00  0.00    +0.004 A 
ATOM     35  C   UNL     1       1.326  -7.709  -0.542  0.00  0.00    +0.012 A 
ATOM     38  C   UNL     1       0.097  -7.525  -1.185  0.00  0.00    +0.037 A 
ATOM     39  C   UNL     1      -0.638  -6.245  -1.117  0.00  0.00    +0.195 C 
ATOM     40  O   UNL     1      -0.603  -5.573  -0.092  0.00  0.00    -0.287 OA
ATOM     41  O   UNL     1      -2.420  -9.287  -2.973  0.00  0.00    -0.286 OA
ATOM     44  C   UNL     1      -1.521  -5.854  -2.250  0.00  0.00    +0.045 A 
BRANCH  32  36
ATOM     36  O   UNL     1      -0.425 -10.951  -2.439  0.00  0.00    -0.506 OA
ATOM     37  H   UNL     1      -1.328 -10.712  -2.767  0.00  0.00    +0.292 HD
ENDBRANCH  32  36
BRANCH  28  42
ATOM     42  O   UNL     1      -3.937  -7.704  -4.354  0.00  0.00    -0.506 OA
ATOM     43  H   UNL     1      -3.652  -8.574  -3.995  0.00  0.00    +0.292 HD
ENDBRANCH  28  42
ENDBRANCH  20  24
BRANCH  47  48
ATOM     48  C   UNL     1       2.328  -2.824  -0.207  0.00  0.00    +0.167 C 
ATOM     49  C   UNL     1       2.636  -4.280   0.024  0.00  0.00    +0.092 C 
ATOM     50  O   UNL     1       3.103  -1.988   0.249  0.00  0.00    -0.292 OA
ENDBRANCH  47  48
BRANCH  21  22
ATOM     22  O   UNL     1       1.145  -4.395  -2.314  0.00  0.00    -0.505 OA
ATOM     23  H   UNL     1       0.844  -4.481  -3.238  0.00  0.00    +0.292 HD
ENDBRANCH  21  22
BRANCH  19  45
ATOM     45  O   UNL     1      -2.924  -1.817  -1.804  0.00  0.00    -0.506 OA
ATOM     46  H   UNL     1      -3.415  -2.653  -1.762  0.00  0.00    +0.292 HD
ENDBRANCH  19  45
BRANCH  17   1
ATOM      1  O   UNL     1       1.157  -0.148  -0.128  0.00  0.00    -0.460 OA
BRANCH   1   2
ATOM      2  C   UNL     1       0.935   1.161  -0.689  0.00  0.00    +0.339 C 
ATOM      3  C   UNL     1       1.509   2.317   0.176  0.00  0.00    +0.214 C 
ATOM      4  C   UNL     1       3.018   2.521  -0.022  0.00  0.00    +0.180 C 
ATOM      5  C   UNL     1       3.355   2.596  -1.524  0.00  0.00    +0.177 C 
ATOM      6  C   UNL     1       2.736   1.421  -2.308  0.00  0.00    +0.179 C 
ATOM     16  O   UNL     1       1.322   1.292  -2.057  0.00  0.00    -0.331 OA
BRANCH   5  10
ATOM     10  O   UNL     1       2.893   3.838  -2.081  0.00  0.00    -0.386 OA
ATOM     11  H   UNL     1       2.030   4.039  -1.664  0.00  0.00    +0.210 HD
ENDBRANCH   5  10
BRANCH   4  12
ATOM     12  O   UNL     1       3.802   1.515   0.611  0.00  0.00    -0.386 OA
ATOM     13  H   UNL     1       3.380   1.251   1.447  0.00  0.00    +0.210 HD
ENDBRANCH   4  12
BRANCH   3  14
ATOM     14  O   UNL     1       0.882   3.574  -0.194  0.00  0.00    -0.383 OA
ATOM     15  H   UNL     1      -0.072   3.422  -0.321  0.00  0.00    +0.210 HD
ENDBRANCH   3  14
BRANCH   6   7
ATOM      7  C   UNL     1       3.523   0.126  -2.064  0.00  0.00    +0.190 C 
BRANCH   7   8
ATOM      8  O   UNL     1       3.049  -0.941  -2.884  0.00  0.00    -0.392 OA
ATOM      9  H   UNL     1       3.432  -1.745  -2.489  0.00  0.00    +0.210 HD
ENDBRANCH   7   8
ENDBRANCH   6   7
ENDBRANCH   1   2
ENDBRANCH  17   1
TORSDOF 13
