REMARK  Name = C:\Users\HP\Downloads\Anthraquinone_pdb\AD35.pdb
REMARK  11 active torsions:
REMARK  status: ('A' for Active; 'I' for Inactive)
REMARK    1  A    between atoms: O_1  and  C_19
REMARK    2  A    between atoms: O_2  and  C_21
REMARK    3  A    between atoms: O_2  and  C_33
REMARK    4  A    between atoms: O_5  and  C_22
REMARK    5  A    between atoms: O_6  and  C_23
REMARK    6  A    between atoms: O_7  and  C_25
REMARK    7  A    between atoms: O_8  and  C_28
REMARK    8  A    between atoms: C_11  and  C_14
REMARK    9  A    between atoms: C_13  and  C_22
REMARK   10  A    between atoms: C_24  and  C_31
REMARK   11  A    between atoms: C_31  and  C_32
REMARK                            x       y       z     vdW  Elec       q    Type
REMARK                         _______ _______ _______ _____ _____    ______ ____
ROOT
ATOM      3  C   UNL     1      -1.854  -2.752  -0.190  0.00  0.00    +0.129 A 
ATOM      4  C   UNL     1      -0.591  -3.330  -0.057  0.00  0.00    +0.052 A 
ATOM      5  C   UNL     1       0.520  -2.531   0.202  0.00  0.00    -0.010 A 
ATOM      9  C   UNL     1       0.374  -1.149   0.329  0.00  0.00    +0.006 A 
ATOM     25  C   UNL     1      -0.892  -0.565   0.197  0.00  0.00    +0.045 A 
ATOM     26  C   UNL     1      -1.038   0.899   0.334  0.00  0.00    +0.195 C 
ATOM     27  C   UNL     1      -2.379   1.502   0.194  0.00  0.00    +0.037 A 
ATOM     28  C   UNL     1      -2.531   2.888   0.324  0.00  0.00    +0.012 A 
ATOM     29  C   UNL     1      -3.794   3.466   0.194  0.00  0.00    +0.004 A 
ATOM     30  C   UNL     1      -4.905   2.666  -0.065  0.00  0.00    +0.046 A 
ATOM     31  C   UNL     1      -4.758   1.285  -0.195  0.00  0.00    +0.128 A 
ATOM     34  C   UNL     1      -3.492   0.701  -0.065  0.00  0.00    +0.075 A 
ATOM     35  C   UNL     1      -3.347  -0.763  -0.203  0.00  0.00    +0.202 C 
ATOM     36  O   UNL     1      -4.323  -1.466  -0.428  0.00  0.00    -0.286 OA
ATOM     37  O   UNL     1      -0.092   1.644   0.560  0.00  0.00    -0.287 OA
ATOM     38  C   UNL     1      -2.006  -1.366  -0.062  0.00  0.00    +0.075 A 
ENDROOT
BRANCH   9  10
ATOM     10  C   UNL     1       1.582  -0.384   0.598  0.00  0.00    +0.067 A 
ATOM     11  C   UNL     1       1.973  -0.148   1.914  0.00  0.00    +0.132 A 
ATOM     12  C   UNL     1       3.131   0.585   2.175  0.00  0.00    +0.092 A 
ATOM     13  C   UNL     1       3.894   1.081   1.118  0.00  0.00    +0.134 A 
ATOM     14  C   UNL     1       3.500   0.844  -0.199  0.00  0.00    +0.101 A 
ATOM     22  C   UNL     1       2.342   0.111  -0.459  0.00  0.00    +0.145 A 
BRANCH  14  15
ATOM     15  C   UNL     1       4.301   1.364  -1.302  0.00  0.00    +0.167 C 
ATOM     16  C   UNL     1       5.427   0.525  -1.891  0.00  0.00    +0.092 C 
ATOM     17  O   UNL     1       4.085   2.493  -1.782  0.00  0.00    -0.292 OA
ENDBRANCH  14  15
BRANCH  13  18
ATOM     18  O   UNL     1       5.022   1.795   1.395  0.00  0.00    -0.506 OA
ATOM     19  H   UNL     1       5.445   2.099   0.576  0.00  0.00    +0.292 HD
ENDBRANCH  13  18
BRANCH  11  20
ATOM     20  O   UNL     1       1.247  -0.620   2.968  0.00  0.00    -0.506 OA
ATOM     21  H   UNL     1       0.462  -1.104   2.667  0.00  0.00    +0.292 HD
ENDBRANCH  11  20
BRANCH  22  23
ATOM     23  O   UNL     1       1.963  -0.117  -1.752  0.00  0.00    -0.494 OA
ATOM     24  C   UNL     1       1.103   0.847  -2.350  0.00  0.00    +0.277 C 
ENDBRANCH  22  23
ENDBRANCH   9  10
BRANCH   3   1
ATOM      1  O   UNL     1      -2.897  -3.594  -0.442  0.00  0.00    -0.506 OA
ATOM      2  H   UNL     1      -2.574  -4.510  -0.491  0.00  0.00    +0.292 HD
ENDBRANCH   3   1
BRANCH  31  32
ATOM     32  O   UNL     1      -5.887   0.564  -0.448  0.00  0.00    -0.506 OA
ATOM     33  H   UNL     1      -5.683  -0.380  -0.526  0.00  0.00    +0.292 HD
ENDBRANCH  31  32
BRANCH   5   6
ATOM      6  C   UNL     1       1.851  -3.204   0.333  0.00  0.00    +0.191 C 
BRANCH   6   7
ATOM      7  O   UNL     1       2.469  -3.269  -0.945  0.00  0.00    -0.390 OA
ATOM      8  H   UNL     1       1.798  -3.515  -1.604  0.00  0.00    +0.210 HD
ENDBRANCH   6   7
ENDBRANCH   5   6
TORSDOF 9
