REMARK  Name = C:\Users\HP\Downloads\Anthraquinone_pdb\AD36.pdb
REMARK  11 active torsions:
REMARK  status: ('A' for Active; 'I' for Inactive)
REMARK    1  A    between atoms: O_1  and  C_19
REMARK    2  A    between atoms: O_4  and  C_21
REMARK    3  A    between atoms: O_5  and  C_22
REMARK    4  A    between atoms: O_6  and  C_23
REMARK    5  A    between atoms: O_7  and  C_27
REMARK    6  A    between atoms: O_7  and  C_33
REMARK    7  A    between atoms: O_8  and  C_25
REMARK    8  A    between atoms: C_11  and  C_14
REMARK    9  A    between atoms: C_13  and  C_22
REMARK   10  A    between atoms: C_24  and  C_31
REMARK   11  A    between atoms: C_31  and  C_32
REMARK                            x       y       z     vdW  Elec       q    Type
REMARK                         _______ _______ _______ _____ _____    ______ ____
ROOT
ATOM      3  C   UNL     1      -2.160  -2.697   0.055  0.00  0.00    +0.129 A 
ATOM      4  C   UNL     1      -0.934  -3.350  -0.081  0.00  0.00    +0.052 A 
ATOM      5  C   UNL     1       0.236  -2.613  -0.252  0.00  0.00    -0.010 A 
ATOM      9  C   UNL     1       0.185  -1.219  -0.288  0.00  0.00    +0.006 A 
ATOM     25  C   UNL     1      -1.043  -0.560  -0.152  0.00  0.00    +0.045 A 
ATOM     26  C   UNL     1      -1.087   0.916  -0.192  0.00  0.00    +0.195 C 
ATOM     27  C   UNL     1      -2.389   1.599  -0.047  0.00  0.00    +0.037 A 
ATOM     28  C   UNL     1      -2.444   2.998  -0.083  0.00  0.00    +0.012 A 
ATOM     29  C   UNL     1      -3.670   3.650   0.053  0.00  0.00    +0.004 A 
ATOM     30  C   UNL     1      -4.839   2.913   0.225  0.00  0.00    +0.046 A 
ATOM     31  C   UNL     1      -4.789   1.519   0.260  0.00  0.00    +0.128 A 
ATOM     34  C   UNL     1      -3.561   0.860   0.124  0.00  0.00    +0.075 A 
ATOM     35  C   UNL     1      -3.517  -0.616   0.164  0.00  0.00    +0.202 C 
ATOM     36  O   UNL     1      -4.545  -1.264   0.315  0.00  0.00    -0.286 OA
ATOM     37  O   UNL     1      -0.088   1.608  -0.342  0.00  0.00    -0.287 OA
ATOM     38  C   UNL     1      -2.215  -1.299   0.019  0.00  0.00    +0.075 A 
ENDROOT
BRANCH   9  10
ATOM     10  C   UNL     1       1.449  -0.521  -0.469  0.00  0.00    +0.067 A 
ATOM     11  C   UNL     1       1.898  -0.226  -1.754  0.00  0.00    +0.132 A 
ATOM     12  C   UNL     1       3.110   0.442  -1.931  0.00  0.00    +0.092 A 
ATOM     13  C   UNL     1       3.869   0.814  -0.822  0.00  0.00    +0.138 A 
ATOM     14  C   UNL     1       3.417   0.518   0.464  0.00  0.00    +0.101 A 
ATOM     22  C   UNL     1       2.205  -0.151   0.641  0.00  0.00    +0.142 A 
BRANCH  14  15
ATOM     15  C   UNL     1       4.213   0.908   1.623  0.00  0.00    +0.167 C 
ATOM     16  C   UNL     1       5.262  -0.043   2.185  0.00  0.00    +0.092 C 
ATOM     17  O   UNL     1       4.057   2.015   2.171  0.00  0.00    -0.292 OA
ENDBRANCH  14  15
BRANCH  13  18
ATOM     18  O   UNL     1       5.050   1.467  -1.017  0.00  0.00    -0.494 OA
ATOM     19  C   UNL     1       5.001   2.891  -1.067  0.00  0.00    +0.277 C 
ENDBRANCH  13  18
BRANCH  11  20
ATOM     20  O   UNL     1       1.178  -0.577  -2.858  0.00  0.00    -0.506 OA
ATOM     21  H   UNL     1       0.353  -1.025  -2.613  0.00  0.00    +0.292 HD
ENDBRANCH  11  20
BRANCH  22  23
ATOM     23  O   UNL     1       1.770  -0.437   1.903  0.00  0.00    -0.505 OA
ATOM     24  H   UNL     1       2.383  -0.092   2.571  0.00  0.00    +0.292 HD
ENDBRANCH  22  23
ENDBRANCH   9  10
BRANCH   3   1
ATOM      1  O   UNL     1      -3.263  -3.481   0.219  0.00  0.00    -0.506 OA
ATOM      2  H   UNL     1      -3.004  -4.418   0.214  0.00  0.00    +0.292 HD
ENDBRANCH   3   1
BRANCH  31  32
ATOM     32  O   UNL     1      -5.971   0.861   0.431  0.00  0.00    -0.506 OA
ATOM     33  H   UNL     1      -5.833  -0.098   0.441  0.00  0.00    +0.292 HD
ENDBRANCH  31  32
BRANCH   5   6
ATOM      6  C   UNL     1       1.522  -3.365  -0.392  0.00  0.00    +0.191 C 
BRANCH   6   7
ATOM      7  O   UNL     1       2.092  -3.560   0.894  0.00  0.00    -0.390 OA
ATOM      8  H   UNL     1       2.913  -4.066   0.770  0.00  0.00    +0.210 HD
ENDBRANCH   6   7
ENDBRANCH   5   6
TORSDOF 9
