REMARK  Name = C:\Users\HP\Downloads\Anthraquinone_pdb\AD37.pdb
REMARK  11 active torsions:
REMARK  status: ('A' for Active; 'I' for Inactive)
REMARK    1  A    between atoms: O_1  and  C_14
REMARK    2  A    between atoms: O_4  and  C_24
REMARK    3  A    between atoms: O_4  and  C_31
REMARK    4  A    between atoms: O_5  and  C_21
REMARK    5  A    between atoms: O_6  and  C_23
REMARK    6  A    between atoms: O_7  and  C_29
REMARK    7  A    between atoms: O_7  and  C_33
REMARK    8  A    between atoms: C_11  and  C_18
REMARK    9  A    between atoms: C_15  and  C_20
REMARK   10  A    between atoms: C_25  and  C_30
REMARK   11  A    between atoms: C_30  and  C_32
REMARK                            x       y       z     vdW  Elec       q    Type
REMARK                         _______ _______ _______ _____ _____    ______ ____
ROOT
ATOM      3  C   UNL     1       2.562  -2.867  -0.126  0.00  0.00    +0.106 C 
ATOM      4  C   UNL     1       1.621  -3.235   0.759  0.00  0.00    +0.045 C 
ATOM      5  C   UNL     1       0.453  -2.403   1.020  0.00  0.00    -0.043 C 
ATOM      6  C   UNL     1      -0.311  -2.782   2.260  0.00  0.00    +0.044 C 
ATOM      7  C   UNL     1       0.122  -1.428   0.140  0.00  0.00    -0.019 C 
ATOM     23  C   UNL     1       0.977  -1.193  -1.105  0.00  0.00    +0.109 C 
ATOM     24  C   UNL     1       0.863   0.221  -1.656  0.00  0.00    +0.172 C 
ATOM     25  C   UNL     1       1.751   1.258  -1.095  0.00  0.00    +0.032 A 
ATOM     26  C   UNL     1       1.438   2.607  -1.303  0.00  0.00    +0.012 A 
ATOM     27  C   UNL     1       2.240   3.605  -0.750  0.00  0.00    +0.004 A 
ATOM     28  C   UNL     1       3.355   3.259   0.009  0.00  0.00    +0.046 A 
ATOM     29  C   UNL     1       3.674   1.916   0.213  0.00  0.00    +0.128 A 
ATOM     32  C   UNL     1       2.873   0.910  -0.343  0.00  0.00    +0.070 A 
ATOM     33  C   UNL     1       3.251  -0.508  -0.143  0.00  0.00    +0.179 C 
ATOM     34  O   UNL     1       4.222  -0.776   0.560  0.00  0.00    -0.291 OA
ATOM     35  O   UNL     1       0.022   0.519  -2.499  0.00  0.00    -0.291 OA
ATOM     36  C   UNL     1       2.455  -1.574  -0.895  0.00  0.00    +0.140 C 
ENDROOT
BRANCH   7   8
ATOM      8  C   UNL     1      -1.083  -0.598   0.321  0.00  0.00    +0.063 A 
ATOM      9  C   UNL     1      -1.006   0.590   1.047  0.00  0.00    +0.134 A 
ATOM     10  C   UNL     1      -2.144   1.378   1.219  0.00  0.00    +0.092 A 
ATOM     11  C   UNL     1      -3.360   0.976   0.665  0.00  0.00    +0.138 A 
ATOM     12  C   UNL     1      -3.437  -0.212  -0.061  0.00  0.00    +0.101 A 
ATOM     20  C   UNL     1      -2.298  -0.999  -0.233  0.00  0.00    +0.142 A 
BRANCH  12  13
ATOM     13  C   UNL     1      -4.710  -0.628  -0.639  0.00  0.00    +0.167 C 
ATOM     14  C   UNL     1      -5.913  -0.876   0.261  0.00  0.00    +0.092 C 
ATOM     15  O   UNL     1      -4.841  -0.787  -1.867  0.00  0.00    -0.292 OA
ENDBRANCH  12  13
BRANCH  11  16
ATOM     16  O   UNL     1      -4.459   1.762   0.845  0.00  0.00    -0.494 OA
ATOM     17  C   UNL     1      -4.703   2.768  -0.136  0.00  0.00    +0.277 C 
ENDBRANCH  11  16
BRANCH   9  18
ATOM     18  O   UNL     1       0.169   1.008   1.601  0.00  0.00    -0.494 OA
ATOM     19  C   UNL     1       0.142   2.236   2.324  0.00  0.00    +0.277 C 
ENDBRANCH   9  18
BRANCH  20  21
ATOM     21  O   UNL     1      -2.381  -2.162  -0.946  0.00  0.00    -0.505 OA
ATOM     22  H   UNL     1      -3.287  -2.315  -1.258  0.00  0.00    +0.292 HD
ENDBRANCH  20  21
ENDBRANCH   7   8
BRANCH   3   1
ATOM      1  O   UNL     1       3.668  -3.639  -0.408  0.00  0.00    -0.510 OA
ATOM      2  H   UNL     1       3.624  -4.442   0.139  0.00  0.00    +0.292 HD
ENDBRANCH   3   1
BRANCH  29  30
ATOM     30  O   UNL     1       4.786   1.654   0.959  0.00  0.00    -0.506 OA
ATOM     31  H   UNL     1       4.887   0.703   1.108  0.00  0.00    +0.292 HD
ENDBRANCH  29  30
TORSDOF 7
