REMARK  Name = C:\Users\HP\Downloads\Anthraquinone_pdb\AD38.pdb
REMARK  10 active torsions:
REMARK  status: ('A' for Active; 'I' for Inactive)
REMARK    1  A    between atoms: O_1  and  C_14
REMARK    2  A    between atoms: O_4  and  C_21
REMARK    3  A    between atoms: O_5  and  C_23
REMARK    4  A    between atoms: O_6  and  C_24
REMARK    5  A    between atoms: O_7  and  C_29
REMARK    6  A    between atoms: O_7  and  C_32
REMARK    7  A    between atoms: C_11  and  C_18
REMARK    8  A    between atoms: C_15  and  C_20
REMARK    9  A    between atoms: C_25  and  C_30
REMARK   10  A    between atoms: C_30  and  C_31
REMARK                            x       y       z     vdW  Elec       q    Type
REMARK                         _______ _______ _______ _____ _____    ______ ____
ROOT
ATOM      3  C   UNL     1       3.091  -2.343   0.280  0.00  0.00    +0.106 C 
ATOM      4  C   UNL     1       2.132  -2.940   1.005  0.00  0.00    +0.045 C 
ATOM      5  C   UNL     1       0.753  -2.467   0.984  0.00  0.00    -0.043 C 
ATOM      6  C   UNL     1      -0.106  -3.016   2.091  0.00  0.00    +0.044 C 
ATOM      7  C   UNL     1       0.348  -1.646  -0.015  0.00  0.00    -0.019 C 
ATOM     23  C   UNL     1       1.333  -1.210  -1.099  0.00  0.00    +0.109 C 
ATOM     24  C   UNL     1       0.949   0.100  -1.770  0.00  0.00    +0.172 C 
ATOM     25  C   UNL     1       1.392   1.360  -1.140  0.00  0.00    +0.032 A 
ATOM     26  C   UNL     1       0.769   2.560  -1.507  0.00  0.00    +0.012 A 
ATOM     27  C   UNL     1       1.145   3.756  -0.897  0.00  0.00    +0.004 A 
ATOM     28  C   UNL     1       2.140   3.759   0.077  0.00  0.00    +0.046 A 
ATOM     29  C   UNL     1       2.767   2.566   0.439  0.00  0.00    +0.128 A 
ATOM     32  C   UNL     1       2.396   1.361  -0.172  0.00  0.00    +0.070 A 
ATOM     33  C   UNL     1       3.099   0.114   0.203  0.00  0.00    +0.179 C 
ATOM     34  O   UNL     1       3.950   0.148   1.089  0.00  0.00    -0.291 OA
ATOM     35  O   UNL     1       0.240   0.128  -2.773  0.00  0.00    -0.291 OA
ATOM     36  C   UNL     1       2.789  -1.152  -0.595  0.00  0.00    +0.140 C 
ENDROOT
BRANCH   7   8
ATOM      8  C   UNL     1      -1.048  -1.187  -0.121  0.00  0.00    +0.063 A 
ATOM      9  C   UNL     1      -1.971  -1.933  -0.854  0.00  0.00    +0.131 A 
ATOM     10  C   UNL     1      -3.293  -1.501  -0.956  0.00  0.00    +0.092 A 
ATOM     11  C   UNL     1      -3.693  -0.323  -0.325  0.00  0.00    +0.138 A 
ATOM     12  C   UNL     1      -2.770   0.423   0.408  0.00  0.00    +0.101 A 
ATOM     20  C   UNL     1      -1.448  -0.009   0.510  0.00  0.00    +0.142 A 
BRANCH  12  13
ATOM     13  C   UNL     1      -3.191   1.655   1.067  0.00  0.00    +0.167 C 
ATOM     14  C   UNL     1      -3.757   2.805   0.246  0.00  0.00    +0.092 C 
ATOM     15  O   UNL     1      -3.100   1.791   2.301  0.00  0.00    -0.292 OA
ENDBRANCH  12  13
BRANCH  11  16
ATOM     16  O   UNL     1      -4.990   0.080  -0.437  0.00  0.00    -0.494 OA
ATOM     17  C   UNL     1      -5.902  -0.390   0.554  0.00  0.00    +0.277 C 
ENDBRANCH  11  16
BRANCH   9  18
ATOM     18  O   UNL     1      -1.610  -3.088  -1.483  0.00  0.00    -0.506 OA
ATOM     19  H   UNL     1      -2.385  -3.460  -1.938  0.00  0.00    +0.292 HD
ENDBRANCH   9  18
BRANCH  20  21
ATOM     21  O   UNL     1      -0.549   0.726   1.230  0.00  0.00    -0.505 OA
ATOM     22  H   UNL     1      -0.958   1.535   1.576  0.00  0.00    +0.292 HD
ENDBRANCH  20  21
ENDBRANCH   7   8
BRANCH   3   1
ATOM      1  O   UNL     1       4.399  -2.777   0.264  0.00  0.00    -0.510 OA
ATOM      2  H   UNL     1       4.469  -3.546   0.856  0.00  0.00    +0.292 HD
ENDBRANCH   3   1
BRANCH  29  30
ATOM     30  O   UNL     1       3.739   2.648   1.392  0.00  0.00    -0.506 OA
ATOM     31  H   UNL     1       4.068   1.768   1.628  0.00  0.00    +0.292 HD
ENDBRANCH  29  30
TORSDOF 7
