REMARK  Name = C:\Users\HP\Downloads\Anthraquinone_pdb\AD4.pdb
REMARK  4 active torsions:
REMARK  status: ('A' for Active; 'I' for Inactive)
REMARK    1  A    between atoms: O_1  and  C_13
REMARK    2  A    between atoms: O_4  and  C_16
REMARK    3  A    between atoms: O_5  and  C_18
REMARK    4  A    between atoms: C_14  and  C_18
REMARK                            x       y       z     vdW  Elec       q    Type
REMARK                         _______ _______ _______ _____ _____    ______ ____
ROOT
ATOM      3  C   UNL     1       1.714  -1.599  -0.102  0.00  0.00    +0.129 A 
ATOM      4  C   UNL     1       3.022  -1.119  -0.175  0.00  0.00    +0.052 A 
ATOM      5  C   UNL     1       3.261   0.253  -0.224  0.00  0.00    -0.018 A 
ATOM      9  C   UNL     1       2.193   1.151  -0.200  0.00  0.00    +0.018 A 
ATOM     10  C   UNL     1       0.879   0.673  -0.126  0.00  0.00    +0.037 A 
ATOM     11  C   UNL     1      -0.245   1.631  -0.101  0.00  0.00    +0.195 C 
ATOM     12  C   UNL     1      -1.626   1.114  -0.023  0.00  0.00    +0.037 A 
ATOM     13  C   UNL     1      -2.700   2.011   0.001  0.00  0.00    +0.012 A 
ATOM     14  C   UNL     1      -4.008   1.531   0.075  0.00  0.00    +0.004 A 
ATOM     15  C   UNL     1      -4.248   0.159   0.123  0.00  0.00    +0.046 A 
ATOM     16  C   UNL     1      -3.180  -0.739   0.099  0.00  0.00    +0.128 A 
ATOM     19  C   UNL     1      -1.866  -0.261   0.026  0.00  0.00    +0.075 A 
ATOM     20  C   UNL     1      -0.742  -1.219   0.001  0.00  0.00    +0.202 C 
ATOM     21  O   UNL     1      -0.952  -2.424   0.044  0.00  0.00    -0.286 OA
ATOM     22  O   UNL     1      -0.035   2.837  -0.142  0.00  0.00    -0.287 OA
ATOM     23  C   UNL     1       0.640  -0.702  -0.077  0.00  0.00    +0.075 A 
ENDROOT
BRANCH   3   1
ATOM      1  O   UNL     1       1.553  -2.953  -0.058  0.00  0.00    -0.506 OA
ATOM      2  H   UNL     1       2.422  -3.387  -0.087  0.00  0.00    +0.292 HD
ENDBRANCH   3   1
BRANCH  16  17
ATOM     17  O   UNL     1      -3.486  -2.066   0.151  0.00  0.00    -0.506 OA
ATOM     18  H   UNL     1      -2.683  -2.606   0.129  0.00  0.00    +0.292 HD
ENDBRANCH  16  17
BRANCH   5   6
ATOM      6  C   UNL     1       4.661   0.762  -0.303  0.00  0.00    +0.191 C 
BRANCH   6   7
ATOM      7  O   UNL     1       5.165   0.961   1.012  0.00  0.00    -0.390 OA
ATOM      8  H   UNL     1       4.512   1.475   1.516  0.00  0.00    +0.210 HD
ENDBRANCH   6   7
ENDBRANCH   5   6
TORSDOF 4
