REMARK  Name = C:\Users\HP\Downloads\Anthraquinone_pdb\AD40.pdb
REMARK  21 active torsions:
REMARK  status: ('A' for Active; 'I' for Inactive)
REMARK    1  A    between atoms: C_1  and  O_2
REMARK    2  A    between atoms: O_2  and  C_3
REMARK    3  A    between atoms: C_5  and  O_6
REMARK    4  A    between atoms: C_7  and  C_8
REMARK    5  A    between atoms: C_9  and  C_10
REMARK    6  A    between atoms: C_12  and  O_13
REMARK    7  A    between atoms: C_22  and  O_23
REMARK    8  A    between atoms: C_24  and  C_25
REMARK    9  A    between atoms: C_32  and  C_33
REMARK   10  A    between atoms: C_34  and  O_35
REMARK   11  A    between atoms: C_37  and  O_38
REMARK   12  A    between atoms: O_38  and  C_39
REMARK   13  A    between atoms: C_40  and  C_41
REMARK   14  A    between atoms: C_41  and  C_42
REMARK   15  A    between atoms: C_44  and  O_45
REMARK   16  A    between atoms: C_46  and  C_47
REMARK   17  A    between atoms: C_49  and  O_50
REMARK   18  A    between atoms: C_51  and  O_52
REMARK   19  A    between atoms: C_58  and  O_59
REMARK   20  A    between atoms: C_60  and  C_61
REMARK   21  A    between atoms: C_61  and  C_62
REMARK                            x       y       z     vdW  Elec       q    Type
REMARK                         _______ _______ _______ _____ _____    ______ ____
ROOT
ATOM     12  C   UNL     1       6.497   2.438  -0.803  0.00  0.00    +0.004 A 
ATOM     13  C   UNL     1       7.313   2.018  -1.898  0.00  0.00    +0.045 A 
ATOM     14  C   UNL     1       8.490   2.790  -2.356  0.00  0.00    +0.195 C 
ATOM     15  C   UNL     1       8.817   2.771  -3.786  0.00  0.00    +0.037 A 
ATOM     16  C   UNL     1       9.516   3.823  -4.367  0.00  0.00    +0.013 A 
ATOM     17  C   UNL     1       9.867   3.749  -5.708  0.00  0.00    +0.009 A 
ATOM     18  C   UNL     1       9.496   2.647  -6.509  0.00  0.00    +0.007 A 
ATOM     54  C   UNL     1       8.633   1.706  -5.927  0.00  0.00    +0.132 A 
ATOM     57  C   UNL     1       8.384   1.701  -4.555  0.00  0.00    +0.075 A 
ATOM     58  C   UNL     1       7.658   0.599  -3.928  0.00  0.00    +0.202 C 
ATOM     59  O   UNL     1       7.543  -0.437  -4.591  0.00  0.00    -0.286 OA
ATOM     60  O   UNL     1       9.184   3.461  -1.613  0.00  0.00    -0.287 OA
ATOM     61  C   UNL     1       7.106   0.796  -2.590  0.00  0.00    +0.075 A 
ATOM     62  C   UNL     1       6.248  -0.153  -2.048  0.00  0.00    +0.129 A 
ATOM     65  C   UNL     1       5.488   0.175  -0.948  0.00  0.00    +0.050 A 
ATOM     66  C   UNL     1       5.510   1.482  -0.386  0.00  0.00    -0.038 A 
ATOM     67  C   UNL     1       4.446   1.694   0.649  0.00  0.00    +0.044 C 
ENDROOT
BRANCH  18  19
ATOM     19  C   UNL     1      10.012   2.458  -7.947  0.00  0.00    +0.085 C 
ATOM     20  C   UNL     1      10.937   3.604  -8.379  0.00  0.00    -0.013 A 
ATOM     21  C   UNL     1      10.426   4.923  -8.750  0.00  0.00    -0.003 A 
ATOM     22  C   UNL     1      11.422   5.962  -8.785  0.00  0.00    -0.039 A 
ATOM     23  C   UNL     1      12.779   5.705  -8.437  0.00  0.00    +0.050 A 
ATOM     24  C   UNL     1      13.240   4.441  -8.127  0.00  0.00    +0.128 A 
ATOM     27  C   UNL     1      11.187   7.433  -9.037  0.00  0.00    +0.044 C 
ATOM     43  C   UNL     1      12.336   3.385  -8.109  0.00  0.00    +0.068 A 
ATOM     44  C   UNL     1      12.849   1.998  -7.737  0.00  0.00    +0.201 C 
ATOM     45  O   UNL     1      13.977   1.788  -7.313  0.00  0.00    -0.286 OA
ATOM     46  C   UNL     1      11.979   0.843  -7.929  0.00  0.00    +0.068 A 
ATOM     47  C   UNL     1      12.464  -0.462  -7.905  0.00  0.00    +0.128 A 
ATOM     48  C   UNL     1      11.654  -1.558  -8.160  0.00  0.00    +0.046 A 
ATOM     49  C   UNL     1      10.330  -1.331  -8.501  0.00  0.00    +0.004 A 
ATOM     50  C   UNL     1       9.838  -0.027  -8.554  0.00  0.00    +0.005 A 
ATOM     53  C   UNL     1      10.635   1.076  -8.183  0.00  0.00    -0.021 A 
BRANCH  21  28
ATOM     28  C   UNL     1       8.897   5.211  -8.954  0.00  0.00    +0.066 A 
ATOM     29  C   UNL     1       8.244   6.364  -8.443  0.00  0.00    +0.142 A 
ATOM     32  C   UNL     1       6.855   6.692  -8.622  0.00  0.00    +0.101 A 
ATOM     36  C   UNL     1       5.999   5.670  -9.041  0.00  0.00    +0.138 A 
ATOM     39  C   UNL     1       6.585   4.502  -9.549  0.00  0.00    +0.092 A 
ATOM     40  C   UNL     1       7.998   4.346  -9.614  0.00  0.00    +0.132 A 
BRANCH  32  33
ATOM     33  C   UNL     1       6.477   8.143  -8.443  0.00  0.00    +0.167 C 
ATOM     34  O   UNL     1       7.404   8.938  -8.188  0.00  0.00    -0.292 OA
ATOM     35  C   UNL     1       5.125   8.738  -8.665  0.00  0.00    +0.092 C 
ENDBRANCH  32  33
BRANCH  29  30
ATOM     30  O   UNL     1       8.970   7.171  -7.589  0.00  0.00    -0.505 OA
ATOM     31  H   UNL     1       8.616   8.088  -7.675  0.00  0.00    +0.292 HD
ENDBRANCH  29  30
BRANCH  36  37
ATOM     37  O   UNL     1       4.714   5.556  -8.562  0.00  0.00    -0.494 OA
ATOM     38  C   UNL     1       3.638   5.988  -9.389  0.00  0.00    +0.277 C 
ENDBRANCH  36  37
BRANCH  40  41
ATOM     41  O   UNL     1       8.459   3.276 -10.341  0.00  0.00    -0.506 OA
ATOM     42  H   UNL     1       7.817   2.548 -10.256  0.00  0.00    +0.292 HD
ENDBRANCH  40  41
ENDBRANCH  21  28
BRANCH  24  25
ATOM     25  O   UNL     1      14.559   4.284  -7.824  0.00  0.00    -0.506 OA
ATOM     26  H   UNL     1      15.015   5.136  -7.812  0.00  0.00    +0.292 HD
ENDBRANCH  24  25
BRANCH  47  51
ATOM     51  O   UNL     1      13.797  -0.763  -7.654  0.00  0.00    -0.506 OA
ATOM     52  H   UNL     1      14.259   0.090  -7.473  0.00  0.00    +0.292 HD
ENDBRANCH  47  51
ENDBRANCH  18  19
BRANCH  12  11
ATOM      3  C   UNL     1       7.080   6.331   1.210  0.00  0.00    +0.138 A 
ATOM      4  C   UNL     1       7.315   6.220  -0.166  0.00  0.00    +0.101 A 
ATOM      8  C   UNL     1       6.965   5.009  -0.827  0.00  0.00    +0.142 A 
ATOM     11  C   UNL     1       6.654   3.805  -0.131  0.00  0.00    +0.067 A 
ATOM     68  C   UNL     1       6.551   3.969   1.269  0.00  0.00    +0.132 A 
ATOM     71  C   UNL     1       6.639   5.209   1.902  0.00  0.00    +0.092 A 
BRANCH   4   5
ATOM      5  C   UNL     1       8.020   7.348  -0.866  0.00  0.00    +0.167 C 
ATOM      6  O   UNL     1       7.712   8.521  -0.665  0.00  0.00    -0.292 OA
ATOM      7  C   UNL     1       9.199   7.032  -1.763  0.00  0.00    +0.092 C 
ENDBRANCH   4   5
BRANCH   3   2
ATOM      1  C   UNL     1       7.384   7.541   3.248  0.00  0.00    +0.277 C 
ATOM      2  O   UNL     1       7.295   7.536   1.827  0.00  0.00    -0.494 OA
ENDBRANCH   3   2
BRANCH   8   9
ATOM      9  O   UNL     1       6.863   5.011  -2.200  0.00  0.00    -0.505 OA
ATOM     10  H   UNL     1       7.769   5.108  -2.540  0.00  0.00    +0.292 HD
ENDBRANCH   8   9
BRANCH  68  69
ATOM     69  O   UNL     1       6.380   2.887   2.091  0.00  0.00    -0.506 OA
ATOM     70  H   UNL     1       5.878   3.171   2.872  0.00  0.00    +0.292 HD
ENDBRANCH  68  69
ENDBRANCH  12  11
BRANCH  54  55
ATOM     55  O   UNL     1       7.980   0.820  -6.745  0.00  0.00    -0.506 OA
ATOM     56  H   UNL     1       7.675   0.066  -6.187  0.00  0.00    +0.292 HD
ENDBRANCH  54  55
BRANCH  62  63
ATOM     63  O   UNL     1       6.127  -1.397  -2.592  0.00  0.00    -0.506 OA
ATOM     64  H   UNL     1       5.587  -1.975  -2.025  0.00  0.00    +0.292 HD
ENDBRANCH  62  63
TORSDOF 15
