REMARK  Name = C:\Users\HP\Downloads\Anthraquinone_pdb\AD41.pdb
REMARK  10 active torsions:
REMARK  status: ('A' for Active; 'I' for Inactive)
REMARK    1  A    between atoms: O_1  and  C_18
REMARK    2  A    between atoms: O_2  and  C_21
REMARK    3  A    between atoms: O_2  and  C_32
REMARK    4  A    between atoms: O_5  and  C_20
REMARK    5  A    between atoms: O_6  and  C_23
REMARK    6  A    between atoms: O_7  and  C_27
REMARK    7  A    between atoms: C_10  and  C_13
REMARK    8  A    between atoms: C_12  and  C_22
REMARK    9  A    between atoms: C_24  and  C_30
REMARK   10  A    between atoms: C_30  and  C_31
REMARK                            x       y       z     vdW  Elec       q    Type
REMARK                         _______ _______ _______ _____ _____    ______ ____
ROOT
ATOM      3  C   UNL     1      -1.875  -2.754   0.455  0.00  0.00    +0.129 A 
ATOM      4  C   UNL     1      -0.636  -3.390   0.382  0.00  0.00    +0.050 A 
ATOM      5  C   UNL     1       0.516  -2.650   0.127  0.00  0.00    -0.038 A 
ATOM      6  C   UNL     1       1.819  -3.385   0.057  0.00  0.00    +0.044 C 
ATOM      7  C   UNL     1       0.434  -1.269  -0.057  0.00  0.00    +0.004 A 
ATOM     23  C   UNL     1      -0.807  -0.626   0.016  0.00  0.00    +0.045 A 
ATOM     24  C   UNL     1      -0.884   0.836  -0.179  0.00  0.00    +0.195 C 
ATOM     25  C   UNL     1      -2.201   1.502  -0.097  0.00  0.00    +0.037 A 
ATOM     26  C   UNL     1      -2.287   2.887  -0.279  0.00  0.00    +0.012 A 
ATOM     27  C   UNL     1      -3.526   3.524  -0.203  0.00  0.00    +0.004 A 
ATOM     28  C   UNL     1      -4.678   2.783   0.053  0.00  0.00    +0.046 A 
ATOM     29  C   UNL     1      -4.596   1.402   0.234  0.00  0.00    +0.128 A 
ATOM     32  C   UNL     1      -3.355   0.759   0.159  0.00  0.00    +0.075 A 
ATOM     33  C   UNL     1      -3.278  -0.703   0.353  0.00  0.00    +0.202 C 
ATOM     34  O   UNL     1      -4.290  -1.354   0.580  0.00  0.00    -0.286 OA
ATOM     35  O   UNL     1       0.098   1.530  -0.407  0.00  0.00    -0.287 OA
ATOM     36  C   UNL     1      -1.962  -1.369   0.272  0.00  0.00    +0.075 A 
ENDROOT
BRANCH   7   8
ATOM      8  C   UNL     1       1.682  -0.567  -0.321  0.00  0.00    +0.067 A 
ATOM      9  C   UNL     1       2.118  -0.401  -1.633  0.00  0.00    +0.135 A 
ATOM     10  C   UNL     1       3.313   0.271  -1.888  0.00  0.00    +0.092 A 
ATOM     11  C   UNL     1       4.069   0.775  -0.830  0.00  0.00    +0.134 A 
ATOM     12  C   UNL     1       3.630   0.608   0.483  0.00  0.00    +0.101 A 
ATOM     20  C   UNL     1       2.435  -0.065   0.738  0.00  0.00    +0.142 A 
BRANCH  12  13
ATOM     13  C   UNL     1       4.423   1.137   1.588  0.00  0.00    +0.167 C 
ATOM     14  C   UNL     1       4.181   2.553   2.092  0.00  0.00    +0.092 C 
ATOM     15  O   UNL     1       5.305   0.451   2.137  0.00  0.00    -0.292 OA
ENDBRANCH  12  13
BRANCH  11  16
ATOM     16  O   UNL     1       5.234   1.430  -1.102  0.00  0.00    -0.506 OA
ATOM     17  H   UNL     1       5.670   1.709  -0.281  0.00  0.00    +0.292 HD
ENDBRANCH  11  16
BRANCH   9  18
ATOM     18  O   UNL     1       1.400  -0.883  -2.688  0.00  0.00    -0.494 OA
ATOM     19  C   UNL     1       0.428  -0.012  -3.259  0.00  0.00    +0.277 C 
ENDBRANCH   9  18
BRANCH  20  21
ATOM     21  O   UNL     1       2.011  -0.225   2.027  0.00  0.00    -0.505 OA
ATOM     22  H   UNL     1       2.652   0.147   2.654  0.00  0.00    +0.292 HD
ENDBRANCH  20  21
ENDBRANCH   7   8
BRANCH   3   1
ATOM      1  O   UNL     1      -2.960  -3.539   0.709  0.00  0.00    -0.506 OA
ATOM      2  H   UNL     1      -2.680  -4.466   0.802  0.00  0.00    +0.292 HD
ENDBRANCH   3   1
BRANCH  29  30
ATOM     30  O   UNL     1      -5.763   0.741   0.480  0.00  0.00    -0.506 OA
ATOM     31  H   UNL     1      -5.604  -0.209   0.585  0.00  0.00    +0.292 HD
ENDBRANCH  29  30
TORSDOF 7
