REMARK  Name = C:\Users\HP\Downloads\Anthraquinone_pdb\AD42.pdb
REMARK  8 active torsions:
REMARK  status: ('A' for Active; 'I' for Inactive)
REMARK    1  A    between atoms: C_3  and  C_4
REMARK    2  A    between atoms: C_6  and  O_7
REMARK    3  A    between atoms: C_16  and  O_17
REMARK    4  A    between atoms: C_18  and  C_19
REMARK    5  A    between atoms: C_19  and  O_20
REMARK    6  A    between atoms: C_28  and  C_29
REMARK    7  A    between atoms: C_31  and  O_32
REMARK    8  A    between atoms: C_33  and  O_34
REMARK                            x       y       z     vdW  Elec       q    Type
REMARK                         _______ _______ _______ _____ _____    ______ ____
ROOT
ATOM      8  C   UNL     1       4.899  -7.374  -0.141  0.00  0.00    +0.146 C 
ATOM      9  C   UNL     1       5.166  -7.533   1.357  0.00  0.00    +0.008 A 
ATOM     10  C   UNL     1       5.458  -6.392   2.145  0.00  0.00    +0.011 A 
ATOM     11  C   UNL     1       5.757  -6.478   3.503  0.00  0.00    -0.047 A 
ATOM     12  C   UNL     1       5.844  -7.741   4.082  0.00  0.00    +0.049 A 
ATOM     13  C   UNL     1       5.600  -8.889   3.317  0.00  0.00    +0.128 A 
ATOM     16  C   UNL     1       6.000  -5.235   4.306  0.00  0.00    +0.044 C 
ATOM     17  C   UNL     1       5.252  -8.801   1.950  0.00  0.00    +0.070 A 
ATOM     18  C   UNL     1       5.016 -10.010   1.115  0.00  0.00    +0.201 C 
ATOM     19  O   UNL     1       5.235 -11.147   1.522  0.00  0.00    -0.286 OA
ATOM     20  C   UNL     1       4.471  -9.865  -0.261  0.00  0.00    +0.070 A 
ATOM     21  C   UNL     1       4.180 -11.011  -1.024  0.00  0.00    +0.128 A 
ATOM     22  C   UNL     1       3.704 -10.905  -2.327  0.00  0.00    +0.046 A 
ATOM     23  C   UNL     1       3.493  -9.649  -2.882  0.00  0.00    +0.004 A 
ATOM     24  C   UNL     1       3.787  -8.502  -2.140  0.00  0.00    +0.008 A 
ATOM     27  C   UNL     1       4.297  -8.589  -0.824  0.00  0.00    +0.007 A 
ENDROOT
BRANCH   8   7
ATOM      1  C   UNL     1       2.695   0.328  -1.073  0.00  0.00    +0.016 A 
ATOM      2  C   UNL     1       3.249  -0.961  -1.075  0.00  0.00    +0.037 A 
ATOM      3  C   UNL     1       2.557  -2.039  -0.334  0.00  0.00    +0.195 C 
ATOM      4  C   UNL     1       3.072  -3.419  -0.417  0.00  0.00    +0.037 A 
ATOM      5  C   UNL     1       2.408  -4.459   0.250  0.00  0.00    +0.013 A 
ATOM      6  C   UNL     1       2.938  -5.755   0.242  0.00  0.00    +0.011 A 
ATOM      7  C   UNL     1       4.152  -6.039  -0.423  0.00  0.00    +0.035 A 
ATOM     30  C   UNL     1       4.740  -5.000  -1.168  0.00  0.00    +0.135 A 
ATOM     33  C   UNL     1       4.231  -3.687  -1.132  0.00  0.00    +0.075 A 
ATOM     34  C   UNL     1       4.982  -2.588  -1.771  0.00  0.00    +0.202 C 
ATOM     35  O   UNL     1       6.069  -2.866  -2.270  0.00  0.00    -0.286 OA
ATOM     36  O   UNL     1       1.569  -1.790   0.346  0.00  0.00    -0.287 OA
ATOM     37  C   UNL     1       4.434  -1.216  -1.768  0.00  0.00    +0.075 A 
ATOM     38  C   UNL     1       5.070  -0.164  -2.443  0.00  0.00    +0.129 A 
ATOM     41  C   UNL     1       4.516   1.118  -2.443  0.00  0.00    +0.049 A 
ATOM     42  C   UNL     1       3.321   1.370  -1.765  0.00  0.00    -0.046 A 
ATOM     43  C   UNL     1       2.720   2.745  -1.799  0.00  0.00    +0.044 C 
BRANCH  30  31
ATOM     31  O   UNL     1       5.853  -5.304  -1.912  0.00  0.00    -0.506 OA
ATOM     32  H   UNL     1       6.245  -4.464  -2.255  0.00  0.00    +0.292 HD
ENDBRANCH  30  31
BRANCH  38  39
ATOM     39  O   UNL     1       6.235  -0.372  -3.125  0.00  0.00    -0.506 OA
ATOM     40  H   UNL     1       6.581   0.463  -3.477  0.00  0.00    +0.292 HD
ENDBRANCH  38  39
ENDBRANCH   8   7
BRANCH  13  14
ATOM     14  O   UNL     1       5.714 -10.102   3.934  0.00  0.00    -0.506 OA
ATOM     15  H   UNL     1       6.159  -9.996   4.789  0.00  0.00    +0.292 HD
ENDBRANCH  13  14
BRANCH  21  25
ATOM     25  O   UNL     1       4.377 -12.289  -0.565  0.00  0.00    -0.506 OA
ATOM     26  H   UNL     1       4.772 -12.216   0.336  0.00  0.00    +0.292 HD
ENDBRANCH  21  25
BRANCH   8  28
ATOM     28  O   UNL     1       6.241  -7.409  -0.652  0.00  0.00    -0.375 OA
ATOM     29  H   UNL     1       6.277  -6.777  -1.394  0.00  0.00    +0.211 HD
ENDBRANCH   8  28
TORSDOF 6
