REMARK  Name = C:\Users\HP\Downloads\Anthraquinone_pdb\AD43.pdb
REMARK  9 active torsions:
REMARK  status: ('A' for Active; 'I' for Inactive)
REMARK    1  A    between atoms: O_1  and  C_10
REMARK    2  A    between atoms: O_2  and  C_16
REMARK    3  A    between atoms: O_4  and  C_23
REMARK    4  A    between atoms: O_5  and  C_25
REMARK    5  A    between atoms: O_8  and  C_35
REMARK    6  A    between atoms: O_9  and  C_36
REMARK    7  A    between atoms: C_10  and  C_13
REMARK    8  A    between atoms: C_24  and  C_34
REMARK    9  A    between atoms: C_37  and  C_39
REMARK                            x       y       z     vdW  Elec       q    Type
REMARK                         _______ _______ _______ _____ _____    ______ ____
ROOT
ATOM      3  C   UNL     1       0.697  -0.321   1.359  0.00  0.00    +0.035 A 
ATOM      4  C   UNL     1       0.055  -0.804   2.492  0.00  0.00    +0.011 A 
ATOM      5  C   UNL     1      -1.338  -0.884   2.517  0.00  0.00    +0.013 A 
ATOM      6  C   UNL     1      -2.082  -0.476   1.404  0.00  0.00    +0.037 A 
ATOM      7  C   UNL     1      -3.556  -0.564   1.440  0.00  0.00    +0.198 C 
ATOM      8  C   UNL     1      -4.330  -0.133   0.257  0.00  0.00    +0.078 A 
ATOM      9  C   UNL     1      -5.727  -0.215   0.277  0.00  0.00    +0.131 A 
ATOM     10  C   UNL     1      -6.465   0.190  -0.836  0.00  0.00    -0.005 A 
ATOM     11  C   UNL     1      -7.957   0.109  -0.838  0.00  0.00    +0.047 C 
ATOM     12  C   UNL     1      -5.814   0.675  -1.968  0.00  0.00    +0.053 A 
ATOM     13  C   UNL     1      -4.421   0.758  -1.992  0.00  0.00    +0.129 A 
ATOM     18  C   UNL     1      -3.676   0.353  -0.877  0.00  0.00    +0.078 A 
ATOM     19  C   UNL     1      -2.202   0.443  -0.912  0.00  0.00    +0.202 C 
ATOM     20  O   UNL     1      -1.632   0.871  -1.908  0.00  0.00    -0.286 OA
ATOM     21  O   UNL     1      -4.103  -0.992   2.449  0.00  0.00    -0.286 OA
ATOM     22  C   UNL     1      -1.429   0.009   0.269  0.00  0.00    +0.075 A 
ATOM     23  C   UNL     1      -0.031   0.087   0.248  0.00  0.00    +0.135 A 
ENDROOT
BRANCH   3   2
ATOM      2  C   UNL     1       2.236  -0.245   1.361  0.00  0.00    +0.146 C 
ATOM     26  C   UNL     1       2.694   1.199   1.155  0.00  0.00    +0.007 A 
ATOM     27  C   UNL     1       2.357   2.183   2.107  0.00  0.00    +0.008 A 
ATOM     28  C   UNL     1       2.735   3.515   1.936  0.00  0.00    +0.004 A 
ATOM     29  C   UNL     1       3.456   3.891   0.809  0.00  0.00    +0.046 A 
ATOM     30  C   UNL     1       3.802   2.936  -0.145  0.00  0.00    +0.128 A 
ATOM     33  C   UNL     1       3.424   1.596   0.028  0.00  0.00    +0.070 A 
ATOM     34  C   UNL     1       3.814   0.607  -0.995  0.00  0.00    +0.201 C 
ATOM     35  C   UNL     1       3.542  -0.826  -0.767  0.00  0.00    +0.070 A 
ATOM     36  C   UNL     1       4.034  -1.763  -1.687  0.00  0.00    +0.128 A 
ATOM     37  C   UNL     1       3.803  -3.124  -1.495  0.00  0.00    +0.049 A 
ATOM     38  C   UNL     1       3.082  -3.554  -0.387  0.00  0.00    -0.047 A 
ATOM     39  C   UNL     1       2.832  -5.009  -0.177  0.00  0.00    +0.044 C 
ATOM     40  C   UNL     1       2.591  -2.622   0.527  0.00  0.00    +0.011 A 
ATOM     43  O   UNL     1       4.370   0.972  -2.024  0.00  0.00    -0.286 OA
ATOM     44  C   UNL     1       2.811  -1.240   0.354  0.00  0.00    +0.008 A 
BRANCH   2   1
ATOM      1  O   UNL     1       2.756  -0.694   2.628  0.00  0.00    -0.375 OA
ATOM     45  H   UNL     1       3.459  -0.095   2.929  0.00  0.00    +0.211 HD
ENDBRANCH   2   1
BRANCH  30  31
ATOM     31  O   UNL     1       4.520   3.374  -1.218  0.00  0.00    -0.506 OA
ATOM     32  H   UNL     1       4.675   4.331  -1.141  0.00  0.00    +0.292 HD
ENDBRANCH  30  31
BRANCH  36  41
ATOM     41  O   UNL     1       4.758  -1.415  -2.790  0.00  0.00    -0.506 OA
ATOM     42  H   UNL     1       5.002  -2.213  -3.289  0.00  0.00    +0.292 HD
ENDBRANCH  36  41
ENDBRANCH   3   2
BRANCH  13  14
ATOM     14  O   UNL     1      -3.850   1.241  -3.132  0.00  0.00    -0.506 OA
ATOM     15  H   UNL     1      -2.884   1.261  -3.051  0.00  0.00    +0.292 HD
ENDBRANCH  13  14
BRANCH   9  16
ATOM     16  O   UNL     1      -6.411  -0.682   1.363  0.00  0.00    -0.506 OA
ATOM     17  H   UNL     1      -5.804  -0.934   2.074  0.00  0.00    +0.292 HD
ENDBRANCH   9  16
BRANCH  23  24
ATOM     24  O   UNL     1       0.656   0.554  -0.836  0.00  0.00    -0.506 OA
ATOM     25  H   UNL     1       0.053   0.806  -1.550  0.00  0.00    +0.292 HD
ENDBRANCH  23  24
TORSDOF 7
