REMARK  7 active torsions:
REMARK  status: ('A' for Active; 'I' for Inactive)
REMARK    1  A    between atoms: O_2  and  C_3 
REMARK    2  A    between atoms: C_3  and  C_4 
REMARK    3  A    between atoms: C_5  and  O_6 
REMARK    4  A    between atoms: C_17  and  O_18 
REMARK    5  A    between atoms: C_22  and  O_23 
REMARK    6  A    between atoms: C_34  and  O_35 
REMARK    7  A    between atoms: C_36  and  O_37 
ROOT
HETATM    1  C   UNL     1       3.220   1.540  -1.863  1.00  0.00     0.032 A 
HETATM    2  C   UNL     1       2.558   0.982  -2.981  1.00  0.00     0.091 A 
HETATM    3  C   UNL     1       2.712   1.527  -4.270  1.00  0.00     0.064 A 
HETATM    4  C   UNL     1       3.550   2.621  -4.455  1.00  0.00     0.044 A 
HETATM    5  C   UNL     1       4.291   3.126  -3.380  1.00  0.00     0.003 A 
HETATM    6  C   UNL     1       4.136   2.587  -2.104  1.00  0.00     0.001 A 
HETATM    7  C   UNL     1       3.614   3.323  -5.755  1.00  0.00     0.198 C 
HETATM    8  O   UNL     1       4.197   4.399  -5.795  1.00  0.00    -0.286 OA
HETATM    9  C   UNL     1       2.940   2.728  -6.940  1.00  0.00     0.066 A 
HETATM   10  C   UNL     1       2.132   1.603  -6.761  1.00  0.00     0.066 A 
HETATM   11  C   UNL     1       1.938   1.017  -5.424  1.00  0.00     0.200 C 
HETATM   12  O   UNL     1       1.119   0.109  -5.324  1.00  0.00    -0.286 OA
HETATM   13  C   UNL     1       1.483   1.025  -7.862  1.00  0.00     0.092 A 
HETATM   14  C   UNL     1       1.634   1.557  -9.134  1.00  0.00     0.022 A 
HETATM   15  C   UNL     1       2.432   2.684  -9.341  1.00  0.00     0.002 A 
HETATM   16  C   UNL     1       2.569   3.223 -10.738  1.00  0.00     0.033 C 
HETATM   17  C   UNL     1       3.082   3.268  -8.235  1.00  0.00     0.089 A 
ENDROOT
BRANCH   1  18
HETATM   18  C   UNL     1       2.738   1.281  -0.390  1.00  0.00     0.151 C 
HETATM   19  C   UNL     1       3.930   1.131   0.541  1.00  0.00     0.015 A 
HETATM   20  C   UNL     1       4.255   2.122   1.475  1.00  0.00     0.060 A 
HETATM   21  C   UNL     1       4.729  -0.035   0.475  1.00  0.00    -0.001 A 
HETATM   22  C   UNL     1       3.454   3.371   1.554  1.00  0.00     0.199 C 
HETATM   23  C   UNL     1       5.356   1.931   2.327  1.00  0.00     0.092 A 
HETATM   24  O   UNL     1       3.850   4.242   2.324  1.00  0.00    -0.286 OA
HETATM   25  C   UNL     1       2.227   3.533   0.721  1.00  0.00     0.060 C 
HETATM   26  C   UNL     1       1.804   2.467  -0.089  1.00  0.00     0.015 C 
HETATM   27  C   UNL     1       1.526   4.751   0.660  1.00  0.00     0.092 C 
HETATM   28  C   UNL     1       0.645   2.630  -0.890  1.00  0.00    -0.005 C 
HETATM   29  C   UNL     1       0.011   3.866  -1.013  1.00  0.00    -0.020 C 
HETATM   30  C   UNL     1      -1.046   4.078  -2.059  1.00  0.00     0.031 C 
HETATM   31  C   UNL     1       0.444   4.923  -0.214  1.00  0.00     0.020 C 
HETATM   32  C   UNL     1       6.118   0.764   2.269  1.00  0.00     0.024 A 
HETATM   33  C   UNL     1       5.803  -0.222   1.341  1.00  0.00     0.002 A 
BRANCH  18  34
HETATM   34  O   UNL     1       2.003   0.030  -0.377  1.00  0.00    -0.344 OA
HETATM   35  C   UNL     1       1.458  -0.397   0.869  1.00  0.00     0.175 C 
ENDBRANCH  18  34
BRANCH  27  36
HETATM   36  O   UNL     1       1.925   5.829   1.400  1.00  0.00    -0.359 OA
HETATM   37  H   UNL     1       1.386   6.606   1.184  1.00  0.00     0.217 HD
ENDBRANCH  27  36
BRANCH  23  38
HETATM   38  O   UNL     1       5.753   2.855   3.255  1.00  0.00    -0.359 OA
HETATM   39  H   UNL     1       5.168   3.645   3.159  1.00  0.00     0.217 HD
ENDBRANCH  23  38
ENDBRANCH   1  18
BRANCH   2  40
HETATM   40  O   UNL     1       1.673  -0.050  -2.820  1.00  0.00    -0.359 OA
HETATM   41  H   UNL     1       1.651  -0.326  -1.882  1.00  0.00     0.217 HD
ENDBRANCH   2  40
BRANCH  13  42
HETATM   42  O   UNL     1       0.670  -0.075  -7.766  1.00  0.00    -0.359 OA
HETATM   43  H   UNL     1       0.606  -0.323  -6.812  1.00  0.00     0.217 HD
ENDBRANCH  13  42
BRANCH  17  44
HETATM   44  O   UNL     1       3.879   4.364  -8.416  1.00  0.00    -0.359 OA
HETATM   45  H   UNL     1       3.805   4.716  -9.315  1.00  0.00     0.217 HD
ENDBRANCH  17  44
TORSDOF 7
