REMARK  5 active torsions:
REMARK  status: ('A' for Active; 'I' for Inactive)
REMARK    1  A    between atoms: O_2  and  C_3 
REMARK    2  A    between atoms: C_7  and  O_8 
REMARK    3  A    between atoms: C_9  and  C_10 
REMARK    4  A    between atoms: C_17  and  O_18 
REMARK    5  A    between atoms: C_23  and  O_24 
ROOT
HETATM    1  C   UNL     1       3.106  -1.445   0.109  1.00  0.00     0.101 C 
HETATM    2  C   UNL     1       2.463  -2.816   0.262  1.00  0.00     0.049 C 
HETATM    3  C   UNL     1       3.205  -4.092   0.204  1.00  0.00     0.104 C 
HETATM    4  C   UNL     1       4.598  -3.853  -0.034  1.00  0.00     0.044 C 
HETATM    5  C   UNL     1       5.149  -2.503  -0.285  1.00  0.00     0.096 C 
HETATM    6  C   UNL     1       4.491  -1.287  -0.118  1.00  0.00     0.079 C 
HETATM    7  C   UNL     1       5.541  -4.985   0.050  1.00  0.00    -0.001 C 
HETATM    8  C   UNL     1       6.808  -4.964   0.628  1.00  0.00    -0.020 C 
HETATM    9  C   UNL     1       7.535  -3.804   1.269  1.00  0.00     0.031 C 
HETATM   10  C   UNL     1       7.568  -6.198   0.743  1.00  0.00     0.016 C 
HETATM   11  C   UNL     1       7.009  -7.373   0.484  1.00  0.00     0.077 C 
HETATM   12  C   UNL     1       5.594  -7.448   0.263  1.00  0.00     0.127 C 
HETATM   13  C   UNL     1       4.920  -7.692   1.641  1.00  0.00     0.169 C 
HETATM   14  O   UNL     1       4.373  -7.032   2.519  1.00  0.00    -0.295 OA
HETATM   15  C   UNL     1       4.346  -8.890   1.665  1.00  0.00     0.116 A 
HETATM   16  C   UNL     1       5.091  -9.564   2.838  1.00  0.00     0.077 A 
HETATM   17  C   UNL     1       5.307 -10.883   2.909  1.00  0.00     0.016 A 
HETATM   18  C   UNL     1       4.632 -11.377   1.821  1.00  0.00    -0.019 A 
HETATM   19  C   UNL     1       3.840 -10.390   0.692  1.00  0.00     0.059 A 
HETATM   20  C   UNL     1       3.625  -8.950   0.398  1.00  0.00    -0.005 A 
HETATM   21  C   UNL     1       3.365  -7.055   0.046  1.00  0.00     0.090 C 
HETATM   22  O   UNL     1       2.568  -5.541   0.434  1.00  0.00    -0.308 OA
HETATM   23  C   UNL     1       4.779  -6.283   0.045  1.00  0.00     0.013 C 
ENDROOT
BRANCH   6  24
HETATM   24  C   UNL     1       5.252   0.089  -0.226  1.00  0.00     0.177 C 
HETATM   25  C   UNL     1       6.743   0.265   0.146  1.00  0.00     0.077 C 
HETATM   26  O   UNL     1       4.683   1.114  -0.621  1.00  0.00    -0.291 OA
ENDBRANCH   6  24
BRANCH   1  27
HETATM   27  O   UNL     1       2.469  -0.220   0.124  1.00  0.00    -0.328 OA
HETATM   28  C   UNL     1       1.077  -0.076   0.288  1.00  0.00     0.181 C 
ENDBRANCH   1  27
BRANCH   5  29
HETATM   29  O   UNL     1       6.384  -2.379  -0.886  1.00  0.00    -0.359 OA
HETATM   30  H   UNL     1       6.867  -3.212  -0.857  1.00  0.00     0.217 HD
ENDBRANCH   5  29
BRANCH  11  31
HETATM   31  O   UNL     1       7.579  -8.595   0.378  1.00  0.00    -0.362 OA
HETATM   32  H   UNL     1       8.450  -8.582   0.826  1.00  0.00     0.217 HD
ENDBRANCH  11  31
BRANCH  16  33
HETATM   33  O   UNL     1       5.673  -8.786   3.818  1.00  0.00    -0.362 OA
HETATM   34  H   UNL     1       5.207  -7.924   3.740  1.00  0.00     0.217 HD
ENDBRANCH  16  33
TORSDOF 5
