REMARK  10 active torsions:
REMARK  status: ('A' for Active; 'I' for Inactive)
REMARK    1  A    between atoms: O_1  and  C_2 
REMARK    2  A    between atoms: C_2  and  O_3 
REMARK    3  A    between atoms: C_2  and  C_23 
REMARK    4  A    between atoms: O_3  and  C_4 
REMARK    5  A    between atoms: C_4  and  C_5 
REMARK    6  A    between atoms: C_9  and  O_10 
REMARK    7  A    between atoms: C_16  and  O_17 
REMARK    8  A    between atoms: C_18  and  O_19 
REMARK    9  A    between atoms: C_20  and  O_21 
REMARK   10  A    between atoms: C_26  and  O_27 
ROOT
HETATM    1  C   UNL     1       4.735   2.378   1.407  1.00  0.00     0.009 A 
HETATM    2  C   UNL     1       5.472   2.198   2.587  1.00  0.00     0.000 A 
HETATM    3  C   UNL     1       5.745   3.263   3.484  1.00  0.00     0.026 A 
HETATM    4  C   UNL     1       5.284   4.558   3.164  1.00  0.00     0.046 A 
HETATM    5  C   UNL     1       5.604   5.619   4.059  1.00  0.00     0.093 A 
HETATM    6  C   UNL     1       6.365   5.447   5.248  1.00  0.00     0.046 A 
HETATM    7  C   UNL     1       6.812   4.146   5.557  1.00  0.00     0.026 A 
HETATM    8  C   UNL     1       7.568   3.940   6.734  1.00  0.00     0.002 A 
HETATM    9  C   UNL     1       7.884   4.988   7.598  1.00  0.00     0.002 A 
HETATM   10  C   UNL     1       7.448   6.271   7.305  1.00  0.00     0.024 A 
HETATM   11  C   UNL     1       6.703   6.492   6.150  1.00  0.00     0.091 A 
HETATM   12  C   UNL     1       6.478   3.085   4.684  1.00  0.00     0.090 A 
HETATM   13  C   UNL     1       4.536   4.716   1.966  1.00  0.00     0.091 A 
HETATM   14  C   UNL     1       4.256   3.652   1.109  1.00  0.00     0.022 A 
ENDROOT
BRANCH   1  15
HETATM   15  C   UNL     1       4.436   1.214   0.493  1.00  0.00     0.172 C 
BRANCH  15  16
HETATM   16  O   UNL     1       4.863   1.555  -0.825  1.00  0.00    -0.323 OA
BRANCH  16  17
HETATM   17  C   UNL     1       4.471   0.606  -1.811  1.00  0.00     0.257 C 
BRANCH  17  18
HETATM   18  O   UNL     1       3.056   0.547  -1.893  1.00  0.00    -0.357 OA
HETATM   19  H   UNL     1       2.804   1.307  -2.441  1.00  0.00     0.213 HD
ENDBRANCH  17  18
BRANCH  17  20
HETATM   20  C   UNL     1       5.104  -0.759  -1.609  1.00  0.00     0.034 A 
HETATM   21  C   UNL     1       4.334  -1.925  -1.477  1.00  0.00     0.003 A 
HETATM   22  C   UNL     1       4.948  -3.167  -1.300  1.00  0.00     0.024 A 
HETATM   23  C   UNL     1       6.333  -3.252  -1.257  1.00  0.00     0.089 A 
HETATM   24  C   UNL     1       7.121  -2.114  -1.388  1.00  0.00     0.024 A 
HETATM   25  C   UNL     1       6.506  -0.871  -1.564  1.00  0.00     0.003 A 
BRANCH  23  26
HETATM   26  O   UNL     1       6.889  -4.485  -1.085  1.00  0.00    -0.359 OA
HETATM   27  H   UNL     1       7.855  -4.393  -1.089  1.00  0.00     0.217 HD
ENDBRANCH  23  26
ENDBRANCH  17  20
ENDBRANCH  16  17
ENDBRANCH  15  16
ENDBRANCH   1  15
BRANCH  13  28
HETATM   28  O   UNL     1       4.069   5.969   1.635  1.00  0.00    -0.359 OA
HETATM   29  H   UNL     1       3.618   5.907   0.773  1.00  0.00     0.217 HD
ENDBRANCH  13  28
BRANCH  12  30
HETATM   30  O   UNL     1       6.886   1.819   5.054  1.00  0.00    -0.359 OA
HETATM   31  H   UNL     1       6.139   1.219   4.895  1.00  0.00     0.217 HD
ENDBRANCH  12  30
BRANCH   5  32
HETATM   32  O   UNL     1       5.169   6.906   3.783  1.00  0.00    -0.359 OA
HETATM   33  H   UNL     1       4.670   6.851   2.939  1.00  0.00     0.217 HD
ENDBRANCH   5  32
BRANCH  11  34
HETATM   34  O   UNL     1       6.311   7.791   5.939  1.00  0.00    -0.359 OA
HETATM   35  H   UNL     1       5.804   7.784   5.100  1.00  0.00     0.217 HD
ENDBRANCH  11  34
TORSDOF 10
