REMARK  12 active torsions:
REMARK  status: ('A' for Active; 'I' for Inactive)
REMARK    1  A    between atoms: O_1  and  C_2 
REMARK    2  A    between atoms: C_2  and  C_3 
REMARK    3  A    between atoms: C_2  and  O_12 
REMARK    4  A    between atoms: C_3  and  C_4 
REMARK    5  A    between atoms: C_4  and  C_5 
REMARK    6  A    between atoms: C_8  and  O_9 
REMARK    7  A    between atoms: O_12  and  C_13 
REMARK    8  A    between atoms: C_13  and  C_14 
REMARK    9  A    between atoms: C_18  and  O_19 
REMARK   10  A    between atoms: C_25  and  O_26 
REMARK   11  A    between atoms: C_27  and  O_28 
REMARK   12  A    between atoms: C_29  and  O_30 
ROOT
HETATM    1  C   UNL     1       4.524   2.759   1.106  1.00  0.00     0.009 A 
HETATM    2  C   UNL     1       5.502   2.883   2.107  1.00  0.00     0.000 A 
HETATM    3  C   UNL     1       5.919   4.143   2.613  1.00  0.00     0.026 A 
HETATM    4  C   UNL     1       5.336   5.309   2.077  1.00  0.00     0.046 A 
HETATM    5  C   UNL     1       5.747   6.568   2.599  1.00  0.00     0.093 A 
HETATM    6  C   UNL     1       6.760   6.717   3.581  1.00  0.00     0.046 A 
HETATM    7  C   UNL     1       7.358   5.546   4.086  1.00  0.00     0.026 A 
HETATM    8  C   UNL     1       8.383   5.665   5.056  1.00  0.00     0.002 A 
HETATM    9  C   UNL     1       8.815   6.905   5.522  1.00  0.00     0.002 A 
HETATM   10  C   UNL     1       8.225   8.062   5.037  1.00  0.00     0.024 A 
HETATM   11  C   UNL     1       7.215   7.966   4.086  1.00  0.00     0.091 A 
HETATM   12  C   UNL     1       6.907   4.288   3.620  1.00  0.00     0.090 A 
HETATM   13  C   UNL     1       4.396   5.157   1.027  1.00  0.00     0.091 A 
HETATM   14  C   UNL     1       3.982   3.914   0.553  1.00  0.00     0.022 A 
ENDROOT
BRANCH   1  15
HETATM   15  C   UNL     1       4.089   1.394   0.632  1.00  0.00     0.172 C 
BRANCH  15  16
HETATM   16  O   UNL     1       3.670   0.570   1.716  1.00  0.00    -0.326 OA
BRANCH  16  17
HETATM   17  C   UNL     1       2.402   0.914   2.257  1.00  0.00     0.233 C 
BRANCH  17  18
HETATM   18  O   UNL     1       1.370   0.714   1.302  1.00  0.00    -0.360 OA
HETATM   19  H   UNL     1       1.161   1.585   0.929  1.00  0.00     0.213 HD
ENDBRANCH  17  18
BRANCH  17  20
HETATM   20  C   UNL     1       2.111  -0.001   3.446  1.00  0.00     0.066 C 
BRANCH  20  21
HETATM   21  C   UNL     1       3.153   0.148   4.555  1.00  0.00     0.032 C 
BRANCH  21  22
HETATM   22  C   UNL     1       2.805  -0.688   5.763  1.00  0.00    -0.022 A 
HETATM   23  C   UNL     1       3.092  -2.061   5.779  1.00  0.00    -0.002 A 
HETATM   24  C   UNL     1       2.754  -2.840   6.885  1.00  0.00     0.024 A 
HETATM   25  C   UNL     1       2.124  -2.251   7.975  1.00  0.00     0.089 A 
HETATM   26  C   UNL     1       1.828  -0.892   7.978  1.00  0.00     0.024 A 
HETATM   27  C   UNL     1       2.166  -0.113   6.871  1.00  0.00    -0.002 A 
BRANCH  25  28
HETATM   28  O   UNL     1       1.810  -3.050   9.034  1.00  0.00    -0.359 OA
HETATM   29  H   UNL     1       1.375  -2.506   9.712  1.00  0.00     0.217 HD
ENDBRANCH  25  28
ENDBRANCH  21  22
ENDBRANCH  20  21
ENDBRANCH  17  20
ENDBRANCH  16  17
ENDBRANCH  15  16
ENDBRANCH   1  15
BRANCH  13  30
HETATM   30  O   UNL     1       3.880   6.283   0.426  1.00  0.00    -0.359 OA
HETATM   31  H   UNL     1       3.830   6.097  -0.531  1.00  0.00     0.217 HD
ENDBRANCH  13  30
BRANCH  12  32
HETATM   32  O   UNL     1       7.485   3.170   4.187  1.00  0.00    -0.359 OA
HETATM   33  H   UNL     1       6.795   2.495   4.292  1.00  0.00     0.217 HD
ENDBRANCH  12  32
BRANCH   5  34
HETATM   34  O   UNL     1       5.140   7.731   2.150  1.00  0.00    -0.359 OA
HETATM   35  H   UNL     1       4.430   7.455   1.531  1.00  0.00     0.217 HD
ENDBRANCH   5  34
BRANCH  11  36
HETATM   36  O   UNL     1       6.688   9.159   3.657  1.00  0.00    -0.359 OA
HETATM   37  H   UNL     1       5.998   8.928   3.000  1.00  0.00     0.217 HD
ENDBRANCH  11  36
TORSDOF 12
