REMARK  Name = C:\Users\HP\Downloads\Anthraquinone_pdb\AD48.pdb
REMARK  7 active torsions:
REMARK  status: ('A' for Active; 'I' for Inactive)
REMARK    1  A    between atoms: O_1  and  C_16
REMARK    2  A    between atoms: O_2  and  C_23
REMARK    3  A    between atoms: O_7  and  C_31
REMARK    4  A    between atoms: O_8  and  C_32
REMARK    5  A    between atoms: C_9  and  C_11
REMARK    6  A    between atoms: C_14  and  C_29
REMARK    7  A    between atoms: C_34  and  C_38
REMARK                            x       y       z     vdW  Elec       q    Type
REMARK                         _______ _______ _______ _____ _____    ______ ____
ROOT
ATOM      3  C   UNL     1       0.835  -0.843   0.387  0.00  0.00    +0.136 A 
ATOM      4  C   UNL     1       2.139  -0.474   0.039  0.00  0.00    +0.075 A 
ATOM      5  C   UNL     1       3.108  -0.128   1.099  0.00  0.00    +0.202 C 
ATOM      6  C   UNL     1       4.481   0.261   0.716  0.00  0.00    +0.075 A 
ATOM      7  C   UNL     1       5.409   0.592   1.711  0.00  0.00    +0.129 A 
ATOM      8  C   UNL     1       6.707   0.961   1.359  0.00  0.00    +0.049 A 
ATOM      9  C   UNL     1       7.083   1.000   0.018  0.00  0.00    -0.046 A 
ATOM     10  C   UNL     1       8.472   1.395  -0.354  0.00  0.00    +0.044 C 
ATOM     11  C   UNL     1       6.162   0.670  -0.977  0.00  0.00    +0.016 A 
ATOM     14  C   UNL     1       4.858   0.300  -0.628  0.00  0.00    +0.037 A 
ATOM     15  C   UNL     1       3.890  -0.048  -1.688  0.00  0.00    +0.195 C 
ATOM     16  O   UNL     1       4.220  -0.015  -2.867  0.00  0.00    -0.287 OA
ATOM     17  O   UNL     1       2.781  -0.162   2.278  0.00  0.00    -0.286 OA
ATOM     18  C   UNL     1       2.516  -0.435  -1.306  0.00  0.00    +0.037 A 
ATOM     19  C   UNL     1       1.588  -0.765  -2.301  0.00  0.00    +0.013 A 
ATOM     20  C   UNL     1       0.289  -1.132  -1.949  0.00  0.00    +0.013 A 
ATOM     21  C   UNL     1      -0.087  -1.171  -0.608  0.00  0.00    +0.025 A 
ENDROOT
BRANCH  21  22
ATOM     22  C   UNL     1      -1.444  -1.556  -0.274  0.00  0.00    +0.000 A 
ATOM     23  C   UNL     1      -1.683  -2.917  -0.065  0.00  0.00    -0.038 A 
ATOM     24  C   UNL     1      -0.594  -3.938  -0.178  0.00  0.00    +0.044 C 
ATOM     25  C   UNL     1      -2.963  -3.365   0.258  0.00  0.00    +0.050 A 
ATOM     26  C   UNL     1      -4.014  -2.455   0.374  0.00  0.00    +0.129 A 
ATOM     27  C   UNL     1      -3.784  -1.090   0.166  0.00  0.00    +0.075 A 
ATOM     28  C   UNL     1      -4.902  -0.133   0.293  0.00  0.00    +0.202 C 
ATOM     29  C   UNL     1      -4.645   1.304   0.072  0.00  0.00    +0.075 A 
ATOM     30  C   UNL     1      -5.696   2.221   0.189  0.00  0.00    +0.128 A 
ATOM     31  C   UNL     1      -5.462   3.581  -0.017  0.00  0.00    +0.046 A 
ATOM     32  C   UNL     1      -4.183   4.029  -0.340  0.00  0.00    +0.004 A 
ATOM     33  C   UNL     1      -3.132   3.118  -0.459  0.00  0.00    +0.012 A 
ATOM     36  C   UNL     1      -3.363   1.753  -0.252  0.00  0.00    +0.037 A 
ATOM     37  C   UNL     1      -2.244   0.796  -0.379  0.00  0.00    +0.195 C 
ATOM     38  O   UNL     1      -1.139   1.238  -0.666  0.00  0.00    -0.287 OA
ATOM     39  O   UNL     1      -6.026  -0.526   0.579  0.00  0.00    -0.286 OA
ATOM     42  C   UNL     1      -2.501  -0.641  -0.157  0.00  0.00    +0.045 A 
BRANCH  30  34
ATOM     34  O   UNL     1      -6.972   1.854   0.501  0.00  0.00    -0.506 OA
ATOM     35  H   UNL     1      -7.035   0.894   0.620  0.00  0.00    +0.292 HD
ENDBRANCH  30  34
BRANCH  26  40
ATOM     40  O   UNL     1      -5.239  -2.962   0.693  0.00  0.00    -0.506 OA
ATOM     41  H   UNL     1      -5.179  -3.927   0.793  0.00  0.00    +0.292 HD
ENDBRANCH  26  40
ENDBRANCH  21  22
BRANCH   3   1
ATOM      1  O   UNL     1       0.424  -0.894   1.690  0.00  0.00    -0.505 OA
ATOM      2  H   UNL     1       1.159  -0.724   2.296  0.00  0.00    +0.292 HD
ENDBRANCH   3   1
BRANCH   7  12
ATOM     12  O   UNL     1       5.110   0.575   3.042  0.00  0.00    -0.506 OA
ATOM     13  H   UNL     1       5.892   0.837   3.557  0.00  0.00    +0.292 HD
ENDBRANCH   7  12
TORSDOF 5
