REMARK  Name = C:\Users\HP\Downloads\Anthraquinone_pdb\AD49.pdb
REMARK  7 active torsions:
REMARK  status: ('A' for Active; 'I' for Inactive)
REMARK    1  A    between atoms: O_1  and  C_15
REMARK    2  A    between atoms: O_2  and  C_17
REMARK    3  A    between atoms: O_7  and  C_31
REMARK    4  A    between atoms: O_8  and  C_33
REMARK    5  A    between atoms: C_9  and  C_10
REMARK    6  A    between atoms: C_14  and  C_29
REMARK    7  A    between atoms: C_32  and  C_38
REMARK                            x       y       z     vdW  Elec       q    Type
REMARK                         _______ _______ _______ _____ _____    ______ ____
ROOT
ATOM      3  C   UNL     1      -1.838  -0.071  -0.509  0.00  0.00    +0.136 A 
ATOM      4  C   UNL     1      -3.198   0.049  -0.197  0.00  0.00    +0.075 A 
ATOM      5  C   UNL     1      -4.121  -1.058  -0.522  0.00  0.00    +0.202 C 
ATOM      6  C   UNL     1      -5.553  -0.919  -0.186  0.00  0.00    +0.075 A 
ATOM      7  C   UNL     1      -6.439  -1.960  -0.488  0.00  0.00    +0.128 A 
ATOM      8  C   UNL     1      -7.792  -1.838  -0.174  0.00  0.00    +0.046 A 
ATOM      9  C   UNL     1      -8.265  -0.680   0.441  0.00  0.00    +0.004 A 
ATOM     10  C   UNL     1      -7.386   0.360   0.743  0.00  0.00    +0.012 A 
ATOM     13  C   UNL     1      -6.027   0.241   0.429  0.00  0.00    +0.037 A 
ATOM     14  C   UNL     1      -5.104   1.348   0.754  0.00  0.00    +0.195 C 
ATOM     15  O   UNL     1      -5.521   2.367   1.291  0.00  0.00    -0.287 OA
ATOM     16  O   UNL     1      -3.709  -2.077  -1.060  0.00  0.00    -0.286 OA
ATOM     17  C   UNL     1      -3.672   1.209   0.419  0.00  0.00    +0.037 A 
ATOM     18  C   UNL     1      -2.786   2.250   0.723  0.00  0.00    +0.016 A 
ATOM     19  C   UNL     1      -1.432   2.126   0.410  0.00  0.00    -0.038 A 
ATOM     20  C   UNL     1      -0.520   3.262   0.750  0.00  0.00    +0.044 C 
ATOM     21  C   UNL     1      -0.956   0.968  -0.205  0.00  0.00    +0.031 A 
ENDROOT
BRANCH  21  22
ATOM     22  C   UNL     1       0.452   0.846  -0.528  0.00  0.00    +0.028 A 
ATOM     23  C   UNL     1       0.895   1.287  -1.774  0.00  0.00    +0.013 A 
ATOM     24  C   UNL     1       2.244   1.182  -2.114  0.00  0.00    +0.013 A 
ATOM     25  C   UNL     1       3.155   0.634  -1.203  0.00  0.00    +0.037 A 
ATOM     26  C   UNL     1       4.582   0.528  -1.571  0.00  0.00    +0.195 C 
ATOM     27  C   UNL     1       5.532  -0.050  -0.599  0.00  0.00    +0.037 A 
ATOM     28  C   UNL     1       6.887  -0.155  -0.936  0.00  0.00    +0.016 A 
ATOM     29  C   UNL     1       7.792  -0.699  -0.024  0.00  0.00    -0.046 A 
ATOM     30  C   UNL     1       9.235  -0.811  -0.383  0.00  0.00    +0.044 C 
ATOM     31  C   UNL     1       7.349  -1.140   1.222  0.00  0.00    +0.049 A 
ATOM     32  C   UNL     1       5.999  -1.038   1.561  0.00  0.00    +0.129 A 
ATOM     35  C   UNL     1       5.088  -0.491   0.649  0.00  0.00    +0.075 A 
ATOM     36  C   UNL     1       3.661  -0.386   1.017  0.00  0.00    +0.202 C 
ATOM     37  O   UNL     1       3.276  -0.774   2.112  0.00  0.00    -0.286 OA
ATOM     38  O   UNL     1       4.970   0.914  -2.667  0.00  0.00    -0.287 OA
ATOM     39  C   UNL     1       2.711   0.193   0.046  0.00  0.00    +0.075 A 
ATOM     40  C   UNL     1       1.357   0.300   0.383  0.00  0.00    +0.136 A 
BRANCH  32  33
ATOM     33  O   UNL     1       5.636  -1.488   2.796  0.00  0.00    -0.506 OA
ATOM     34  H   UNL     1       6.418  -1.826   3.264  0.00  0.00    +0.292 HD
ENDBRANCH  32  33
BRANCH  40  41
ATOM     41  O   UNL     1       0.880  -0.120   1.593  0.00  0.00    -0.505 OA
ATOM     42  H   UNL     1       1.598  -0.415   2.170  0.00  0.00    +0.292 HD
ENDBRANCH  40  41
ENDBRANCH  21  22
BRANCH   3   1
ATOM      1  O   UNL     1      -1.335  -1.190  -1.110  0.00  0.00    -0.505 OA
ATOM      2  H   UNL     1      -0.379  -1.140  -1.256  0.00  0.00    +0.292 HD
ENDBRANCH   3   1
BRANCH   7  11
ATOM     11  O   UNL     1      -6.046  -3.120  -1.088  0.00  0.00    -0.506 OA
ATOM     12  H   UNL     1      -5.094  -3.109  -1.270  0.00  0.00    +0.292 HD
ENDBRANCH   7  11
TORSDOF 5
