REMARK  Name = C:\Users\HP\Downloads\Anthraquinone_pdb\AD50.pdb
REMARK  10 active torsions:
REMARK  status: ('A' for Active; 'I' for Inactive)
REMARK    1  A    between atoms: O_1  and  C_17
REMARK    2  A    between atoms: O_3  and  C_20
REMARK    3  A    between atoms: O_4  and  C_21
REMARK    4  A    between atoms: O_5  and  C_22
REMARK    5  A    between atoms: O_6  and  C_28
REMARK    6  A    between atoms: O_6  and  C_31
REMARK    7  A    between atoms: C_10  and  C_16
REMARK    8  A    between atoms: C_14  and  C_23
REMARK    9  A    between atoms: C_24  and  C_29
REMARK   10  A    between atoms: C_29  and  C_30
REMARK                            x       y       z     vdW  Elec       q    Type
REMARK                         _______ _______ _______ _____ _____    ______ ____
ROOT
ATOM      3  C   UNL     1       2.201  -2.686   0.202  0.00  0.00    +0.128 A 
ATOM      4  C   UNL     1       1.011  -3.407   0.110  0.00  0.00    +0.050 A 
ATOM      5  C   UNL     1      -0.194  -2.740  -0.091  0.00  0.00    -0.039 A 
ATOM      6  C   UNL     1      -1.446  -3.553  -0.181  0.00  0.00    +0.044 C 
ATOM      7  C   UNL     1      -0.210  -1.349  -0.201  0.00  0.00    -0.004 A 
ATOM     23  C   UNL     1       0.979  -0.608  -0.111  0.00  0.00    -0.021 A 
ATOM     24  C   UNL     1       0.911   0.889  -0.236  0.00  0.00    +0.072 C 
ATOM     25  C   UNL     1       2.226   1.611  -0.129  0.00  0.00    -0.029 A 
ATOM     26  C   UNL     1       2.240   3.010  -0.235  0.00  0.00    +0.005 A 
ATOM     27  C   UNL     1       3.436   3.721  -0.141  0.00  0.00    +0.004 A 
ATOM     28  C   UNL     1       4.634   3.041   0.060  0.00  0.00    +0.046 A 
ATOM     29  C   UNL     1       4.638   1.651   0.168  0.00  0.00    +0.128 A 
ATOM     32  C   UNL     1       3.435   0.938   0.074  0.00  0.00    +0.067 A 
ATOM     33  C   UNL     1       3.453  -0.536   0.190  0.00  0.00    +0.201 C 
ATOM     34  O   UNL     1       4.510  -1.129   0.366  0.00  0.00    -0.286 OA
ATOM     35  C   UNL     1       2.184  -1.289   0.091  0.00  0.00    +0.068 A 
ENDROOT
BRANCH   7   8
ATOM      8  C   UNL     1      -1.488  -0.684  -0.409  0.00  0.00    +0.066 A 
ATOM      9  C   UNL     1      -1.947  -0.459  -1.705  0.00  0.00    +0.132 A 
ATOM     10  C   UNL     1      -3.171   0.178  -1.907  0.00  0.00    +0.092 A 
ATOM     11  C   UNL     1      -3.932   0.590  -0.812  0.00  0.00    +0.138 A 
ATOM     12  C   UNL     1      -3.469   0.363   0.484  0.00  0.00    +0.101 A 
ATOM     20  C   UNL     1      -2.245  -0.275   0.686  0.00  0.00    +0.142 A 
BRANCH  12  13
ATOM     13  C   UNL     1      -4.268   0.794   1.626  0.00  0.00    +0.167 C 
ATOM     14  C   UNL     1      -5.296  -0.147   2.238  0.00  0.00    +0.092 C 
ATOM     15  O   UNL     1      -4.128   1.928   2.121  0.00  0.00    -0.292 OA
ENDBRANCH  12  13
BRANCH  11  16
ATOM     16  O   UNL     1      -5.125   1.211  -1.033  0.00  0.00    -0.494 OA
ATOM     17  C   UNL     1      -5.103   2.632  -1.151  0.00  0.00    +0.277 C 
ENDBRANCH  11  16
BRANCH   9  18
ATOM     18  O   UNL     1      -1.225  -0.850  -2.794  0.00  0.00    -0.506 OA
ATOM     19  H   UNL     1      -1.709  -0.606  -3.602  0.00  0.00    +0.292 HD
ENDBRANCH   9  18
BRANCH  20  21
ATOM     21  O   UNL     1      -1.799  -0.493   1.958  0.00  0.00    -0.505 OA
ATOM     22  H   UNL     1      -0.936  -0.935   1.964  0.00  0.00    +0.292 HD
ENDBRANCH  20  21
ENDBRANCH   7   8
BRANCH   3   1
ATOM      1  O   UNL     1       3.344  -3.402   0.399  0.00  0.00    -0.506 OA
ATOM      2  H   UNL     1       4.114  -2.816   0.450  0.00  0.00    +0.292 HD
ENDBRANCH   3   1
BRANCH  29  30
ATOM     30  O   UNL     1       5.846   1.050   0.363  0.00  0.00    -0.506 OA
ATOM     31  H   UNL     1       6.545   1.724   0.398  0.00  0.00    +0.292 HD
ENDBRANCH  29  30
TORSDOF 7
