REMARK  Name = C:\Users\HP\Downloads\Anthraquinone_pdb\AD51.pdb
REMARK  5 active torsions:
REMARK  status: ('A' for Active; 'I' for Inactive)
REMARK    1  A    between atoms: O_1  and  C_15
REMARK    2  A    between atoms: O_1  and  C_21
REMARK    3  A    between atoms: O_4  and  C_16
REMARK    4  A    between atoms: C_13  and  C_18
REMARK    5  A    between atoms: C_21  and  C_22
REMARK                            x       y       z     vdW  Elec       q    Type
REMARK                         _______ _______ _______ _____ _____    ______ ____
ROOT
ATOM      5  C   UNL     1       2.623   0.024  -0.488  0.00  0.00    +0.135 A 
ATOM      6  C   UNL     1       1.596  -0.920  -0.456  0.00  0.00    +0.059 A 
ATOM      7  C   UNL     1       0.269  -0.506  -0.286  0.00  0.00    +0.037 A 
ATOM      8  C   UNL     1      -0.811  -1.512  -0.254  0.00  0.00    +0.195 C 
ATOM      9  C   UNL     1      -2.207  -1.061  -0.075  0.00  0.00    +0.037 A 
ATOM     10  C   UNL     1      -3.240  -2.005  -0.044  0.00  0.00    +0.012 A 
ATOM     11  C   UNL     1      -4.561  -1.587   0.124  0.00  0.00    +0.004 A 
ATOM     12  C   UNL     1      -4.853  -0.232   0.260  0.00  0.00    +0.046 A 
ATOM     13  C   UNL     1      -3.826   0.712   0.230  0.00  0.00    +0.128 A 
ATOM     16  C   UNL     1      -2.499   0.298   0.061  0.00  0.00    +0.074 A 
ATOM     17  C   UNL     1      -1.419   1.304   0.029  0.00  0.00    +0.198 C 
ATOM     18  O   UNL     1      -1.650   2.501   0.148  0.00  0.00    -0.286 OA
ATOM     19  O   UNL     1      -0.555  -2.704  -0.376  0.00  0.00    -0.287 OA
ATOM     20  C   UNL     1      -0.024   0.853  -0.150  0.00  0.00    +0.034 A 
ATOM     21  C   UNL     1       1.010   1.797  -0.183  0.00  0.00    +0.019 A 
ATOM     22  C   UNL     1       2.330   1.379  -0.352  0.00  0.00    -0.007 A 
ATOM     23  C   UNL     1       3.420   2.400  -0.383  0.00  0.00    +0.047 C 
ENDROOT
BRANCH  13  14
ATOM     14  O   UNL     1      -4.180   2.022   0.370  0.00  0.00    -0.506 OA
ATOM     15  H   UNL     1      -3.398   2.594   0.337  0.00  0.00    +0.292 HD
ENDBRANCH  13  14
BRANCH   5   1
ATOM      1  O   UNL     1       3.908  -0.398  -0.654  0.00  0.00    -0.426 OA
BRANCH   1   2
ATOM      2  C   UNL     1       4.580  -0.674   0.547  0.00  0.00    +0.309 C 
ATOM      3  C   UNL     1       5.980  -1.129   0.258  0.00  0.00    +0.136 C 
ATOM      4  O   UNL     1       4.111  -0.563   1.672  0.00  0.00    -0.251 OA
ENDBRANCH   1   2
ENDBRANCH   5   1
TORSDOF 3
