REMARK  Name = C:\Users\HP\Downloads\Anthraquinone_pdb\AD52.pdb
REMARK  3 active torsions:
REMARK  status: ('A' for Active; 'I' for Inactive)
REMARK    1  A    between atoms: C_1  and  C_2
REMARK    2  A    between atoms: C_11  and  O_12
REMARK    3  A    between atoms: C_15  and  O_16
REMARK                            x       y       z     vdW  Elec       q    Type
REMARK                         _______ _______ _______ _____ _____    ______ ____
ROOT
ATOM      1  C   UNL     1       0.858   0.212  -0.003  0.00  0.00    +0.044 C 
ATOM      2  C   UNL     1       2.358   0.163  -0.005  0.00  0.00    -0.050 A 
ATOM      3  C   UNL     1       3.112   1.341  -0.006  0.00  0.00    +0.004 A 
ATOM      4  C   UNL     1       4.510   1.288  -0.008  0.00  0.00    +0.013 A 
ATOM      5  C   UNL     1       5.166   0.050  -0.008  0.00  0.00    +0.033 A 
ATOM      6  C   UNL     1       6.637  -0.013  -0.010  0.00  0.00    +0.198 C 
ATOM      7  C   UNL     1       7.318  -1.326  -0.010  0.00  0.00    +0.078 A 
ATOM      8  C   UNL     1       6.574  -2.512  -0.009  0.00  0.00    +0.078 A 
ATOM      9  C   UNL     1       5.089  -2.442  -0.007  0.00  0.00    +0.198 C 
ATOM     10  O   UNL     1       4.380  -3.441  -0.005  0.00  0.00    -0.286 OA
ATOM     11  C   UNL     1       7.253  -3.744  -0.010  0.00  0.00    +0.129 A 
ATOM     14  C   UNL     1       8.648  -3.795  -0.012  0.00  0.00    +0.050 A 
ATOM     15  C   UNL     1       9.382  -2.612  -0.012  0.00  0.00    +0.050 A 
ATOM     16  C   UNL     1       8.722  -1.387  -0.012  0.00  0.00    +0.129 A 
ATOM     19  O   UNL     1       7.306   1.017  -0.011  0.00  0.00    -0.286 OA
ATOM     20  C   UNL     1       4.424  -1.125  -0.007  0.00  0.00    +0.033 A 
ATOM     21  C   UNL     1       3.023  -1.068  -0.006  0.00  0.00    +0.015 A 
ENDROOT
BRANCH  11  12
ATOM     12  O   UNL     1       6.565  -4.923  -0.009  0.00  0.00    -0.506 OA
ATOM     13  H   UNL     1       7.174  -5.679  -0.009  0.00  0.00    +0.292 HD
ENDBRANCH  11  12
BRANCH  16  17
ATOM     17  O   UNL     1       9.524  -0.278  -0.013  0.00  0.00    -0.506 OA
ATOM     18  H   UNL     1       8.948   0.520  -0.013  0.00  0.00    +0.292 HD
ENDBRANCH  16  17
TORSDOF 2
