REMARK  Name = C:\Users\HP\Downloads\Anthraquinone_pdb\AD53.pdb
REMARK  6 active torsions:
REMARK  status: ('A' for Active; 'I' for Inactive)
REMARK    1  A    between atoms: C_1  and  C_2
REMARK    2  A    between atoms: C_2  and  C_3
REMARK    3  A    between atoms: C_13  and  C_14
REMARK    4  A    between atoms: C_15  and  O_16
REMARK    5  A    between atoms: C_23  and  O_24
REMARK    6  A    between atoms: C_27  and  O_28
REMARK                            x       y       z     vdW  Elec       q    Type
REMARK                         _______ _______ _______ _____ _____    ______ ____
ROOT
ATOM      1  C   UNL     1       1.181  -0.080  -0.152  0.00  0.00    +0.060 C 
ATOM      2  C   UNL     1       2.701   0.057   0.000  0.00  0.00    +0.123 C 
ATOM      3  O   UNL     1       3.286  -1.011  -0.784  0.00  0.00    -0.482 OA
ATOM      4  C   UNL     1       4.597  -0.827  -1.143  0.00  0.00    +0.130 A 
ATOM      5  C   UNL     1       5.339  -1.971  -1.430  0.00  0.00    +0.058 A 
ATOM      6  C   UNL     1       6.697  -1.860  -1.735  0.00  0.00    +0.037 A 
ATOM      7  C   UNL     1       7.303  -0.603  -1.765  0.00  0.00    +0.034 A 
ATOM      8  C   UNL     1       6.539   0.555  -1.539  0.00  0.00    +0.024 A 
ATOM      9  C   UNL     1       8.749  -0.491  -2.028  0.00  0.00    +0.195 C 
ATOM     10  O   UNL     1       9.275   0.611  -2.132  0.00  0.00    -0.287 OA
ATOM     11  C   UNL     1       9.564  -1.728  -2.116  0.00  0.00    +0.034 A 
ATOM     12  C   UNL     1      10.955  -1.606  -2.221  0.00  0.00    +0.012 A 
ATOM     13  C   UNL     1      11.755  -2.744  -2.273  0.00  0.00    +0.001 A 
ATOM     14  C   UNL     1      11.171  -4.010  -2.195  0.00  0.00    +0.009 A 
ATOM     15  C   UNL     1       9.776  -4.156  -2.084  0.00  0.00    +0.001 A 
ATOM     34  C   UNL     1       8.966  -2.995  -2.072  0.00  0.00    +0.041 A 
ATOM     35  C   UNL     1       7.482  -3.072  -2.038  0.00  0.00    +0.195 C 
ATOM     36  O   UNL     1       6.892  -4.116  -2.289  0.00  0.00    -0.287 OA
ATOM     37  C   UNL     1       5.178   0.443  -1.238  0.00  0.00    +0.017 A 
ATOM     38  C   UNL     1       4.339   1.618  -1.041  0.00  0.00    +0.011 C 
ATOM     39  C   UNL     1       3.149   1.429  -0.459  0.00  0.00    +0.020 C 
ATOM     40  C   UNL     1       3.075  -0.157   1.476  0.00  0.00    +0.060 C 
ENDROOT
BRANCH  15  16
ATOM     16  C   UNL     1       9.239  -5.529  -1.927  0.00  0.00    +0.075 C 
ATOM     17  C   UNL     1       9.064  -6.403  -3.115  0.00  0.00    +0.202 C 
ATOM     18  O   UNL     1       9.366  -6.021  -4.244  0.00  0.00    -0.286 OA
ATOM     19  C   UNL     1       8.577  -7.788  -2.926  0.00  0.00    +0.078 A 
ATOM     20  C   UNL     1       8.564  -8.677  -4.014  0.00  0.00    +0.129 A 
ATOM     21  C   UNL     1       8.113  -9.987  -3.866  0.00  0.00    +0.050 A 
ATOM     22  C   UNL     1       7.655 -10.423  -2.628  0.00  0.00    +0.050 A 
ATOM     23  C   UNL     1       7.676  -9.552  -1.536  0.00  0.00    +0.129 A 
ATOM     28  C   UNL     1       8.152  -8.233  -1.671  0.00  0.00    +0.081 A 
ATOM     29  C   UNL     1       8.260  -7.318  -0.512  0.00  0.00    +0.232 C 
ATOM     30  O   UNL     1       7.888  -7.583   0.628  0.00  0.00    -0.283 OA
ATOM     31  C   UNL     1       8.901  -5.989  -0.713  0.00  0.00    +0.176 C 
BRANCH  23  24
ATOM     24  O   UNL     1       7.237 -10.022  -0.329  0.00  0.00    -0.506 OA
ATOM     25  H   UNL     1       6.867 -10.914  -0.425  0.00  0.00    +0.292 HD
ENDBRANCH  23  24
BRANCH  20  26
ATOM     26  O   UNL     1       9.003  -8.342  -5.267  0.00  0.00    -0.506 OA
ATOM     27  H   UNL     1       9.238  -7.385  -5.268  0.00  0.00    +0.292 HD
ENDBRANCH  20  26
BRANCH  31  32
ATOM     32  O   UNL     1       9.109  -5.243   0.443  0.00  0.00    -0.503 OA
ATOM     33  H   UNL     1       8.763  -5.814   1.166  0.00  0.00    +0.292 HD
ENDBRANCH  31  32
ENDBRANCH  15  16
TORSDOF 4
