REMARK  Name = C:\Users\HP\Downloads\Anthraquinone_pdb\AD54.pdb
REMARK  8 active torsions:
REMARK  status: ('A' for Active; 'I' for Inactive)
REMARK    1  A    between atoms: C_1  and  C_2
REMARK    2  A    between atoms: C_2  and  O_4
REMARK    3  A    between atoms: O_4  and  C_5
REMARK    4  A    between atoms: C_6  and  C_7
REMARK    5  A    between atoms: C_21  and  C_22
REMARK    6  A    between atoms: C_21  and  C_23
REMARK    7  A    between atoms: C_32  and  O_33
REMARK    8  A    between atoms: C_36  and  O_37
REMARK                            x       y       z     vdW  Elec       q    Type
REMARK                         _______ _______ _______ _____ _____    ______ ____
ROOT
ATOM     20  C   UNL     1       4.675  -0.714  -1.469  0.00  0.00    +0.001 A 
ATOM     21  C   UNL     1       4.334  -1.952  -2.059  0.00  0.00    +0.041 A 
ATOM     22  C   UNL     1       4.693  -3.253  -1.427  0.00  0.00    +0.195 C 
ATOM     23  C   UNL     1       4.343  -4.516  -2.106  0.00  0.00    +0.037 A 
ATOM     24  C   UNL     1       3.647  -4.498  -3.313  0.00  0.00    +0.034 A 
ATOM     25  C   UNL     1       3.230  -3.221  -3.910  0.00  0.00    +0.195 C 
ATOM     26  O   UNL     1       2.544  -3.212  -4.926  0.00  0.00    -0.287 OA
ATOM     27  C   UNL     1       3.313  -5.697  -3.957  0.00  0.00    +0.024 A 
ATOM     28  C   UNL     1       3.641  -6.916  -3.366  0.00  0.00    +0.017 A 
ATOM     29  C   UNL     1       3.292  -8.179  -4.001  0.00  0.00    +0.011 C 
ATOM     30  C   UNL     1       3.319  -9.271  -3.229  0.00  0.00    +0.020 C 
ATOM     31  C   UNL     1       3.715  -9.202  -1.768  0.00  0.00    +0.123 C 
ATOM     32  O   UNL     1       4.610  -8.098  -1.483  0.00  0.00    -0.482 OA
ATOM     33  C   UNL     1       4.466 -10.481  -1.380  0.00  0.00    +0.060 C 
ATOM     34  C   UNL     1       2.472  -9.056  -0.877  0.00  0.00    +0.060 C 
ATOM     35  C   UNL     1       4.308  -6.929  -2.135  0.00  0.00    +0.130 A 
ATOM     36  C   UNL     1       4.689  -5.739  -1.519  0.00  0.00    +0.058 A 
ATOM     37  O   UNL     1       5.276  -3.305  -0.350  0.00  0.00    -0.287 OA
ATOM     38  C   UNL     1       3.632  -1.955  -3.268  0.00  0.00    +0.034 A 
ATOM     39  C   UNL     1       3.282  -0.751  -3.897  0.00  0.00    +0.012 A 
ATOM     40  C   UNL     1       3.653   0.466  -3.335  0.00  0.00    +0.001 A 
ATOM     41  C   UNL     1       4.347   0.485  -2.128  0.00  0.00    +0.009 A 
ENDROOT
BRANCH  20  19
ATOM      4  C   UNL     1       4.579  -0.578   0.962  0.00  0.00    +0.190 C 
ATOM      5  C   UNL     1       5.189  -0.582   2.324  0.00  0.00    +0.233 C 
ATOM      6  O   UNL     1       4.447  -0.596   3.301  0.00  0.00    -0.283 OA
ATOM      7  C   UNL     1       6.667  -0.634   2.429  0.00  0.00    +0.081 A 
ATOM      8  C   UNL     1       7.313  -0.669   3.679  0.00  0.00    +0.129 A 
ATOM     11  C   UNL     1       8.703  -0.774   3.768  0.00  0.00    +0.050 A 
ATOM     12  C   UNL     1       9.465  -0.847   2.607  0.00  0.00    +0.050 A 
ATOM     13  C   UNL     1       8.839  -0.803   1.365  0.00  0.00    +0.129 A 
ATOM     16  C   UNL     1       7.443  -0.690   1.265  0.00  0.00    +0.078 A 
ATOM     17  C   UNL     1       6.809  -0.633  -0.066  0.00  0.00    +0.202 C 
ATOM     18  O   UNL     1       7.510  -0.629  -1.078  0.00  0.00    -0.286 OA
ATOM     19  C   UNL     1       5.329  -0.605  -0.151  0.00  0.00    +0.076 C 
BRANCH   8   9
ATOM      9  O   UNL     1       6.599  -0.599   4.840  0.00  0.00    -0.506 OA
ATOM     10  H   UNL     1       7.186  -0.659   5.610  0.00  0.00    +0.292 HD
ENDBRANCH   8   9
BRANCH  13  14
ATOM     14  O   UNL     1       9.671  -0.886   0.280  0.00  0.00    -0.506 OA
ATOM     15  H   UNL     1       9.122  -0.853  -0.536  0.00  0.00    +0.292 HD
ENDBRANCH  13  14
BRANCH   4   3
ATOM      3  O   UNL     1       3.174  -0.714   0.903  0.00  0.00    -0.421 OA
BRANCH   3   2
ATOM      1  C   UNL     1       1.161  -0.116   1.945  0.00  0.00    +0.136 C 
ATOM      2  C   UNL     1       2.504   0.345   1.455  0.00  0.00    +0.309 C 
ATOM     42  O   UNL     1       2.927   1.490   1.551  0.00  0.00    -0.251 OA
ENDBRANCH   3   2
ENDBRANCH   4   3
ENDBRANCH  20  19
TORSDOF 5
