REMARK  Name = C:\Users\HP\Downloads\Anthraquinone_pdb\AD55.pdb
REMARK  3 active torsions:
REMARK  status: ('A' for Active; 'I' for Inactive)
REMARK    1  A    between atoms: C_1  and  C_2
REMARK    2  A    between atoms: C_9  and  O_10
REMARK    3  A    between atoms: C_11  and  O_12
REMARK                            x       y       z     vdW  Elec       q    Type
REMARK                         _______ _______ _______ _____ _____    ______ ____
ROOT
ATOM      1  C   UNL     1       1.052   0.126   0.034  0.00  0.00    +0.044 C 
ATOM      2  C   UNL     1       2.553   0.109   0.031  0.00  0.00    -0.050 A 
ATOM      3  C   UNL     1       3.227  -1.118   0.031  0.00  0.00    +0.015 A 
ATOM      4  C   UNL     1       4.627  -1.160   0.028  0.00  0.00    +0.033 A 
ATOM      5  C   UNL     1       5.310  -2.466   0.028  0.00  0.00    +0.195 C 
ATOM      6  O   UNL     1       4.661  -3.505   0.030  0.00  0.00    -0.287 OA
ATOM      7  C   UNL     1       6.785  -2.508   0.024  0.00  0.00    +0.037 A 
ATOM      8  C   UNL     1       7.431  -3.755   0.024  0.00  0.00    +0.016 A 
ATOM      9  C   UNL     1       8.824  -3.821   0.021  0.00  0.00    +0.050 A 
ATOM     10  C   UNL     1       9.557  -2.643   0.019  0.00  0.00    +0.159 A 
ATOM     13  C   UNL     1       8.925  -1.400   0.019  0.00  0.00    +0.170 A 
ATOM     16  C   UNL     1       7.527  -1.326   0.022  0.00  0.00    +0.078 A 
ATOM     17  C   UNL     1       6.837  -0.021   0.022  0.00  0.00    +0.198 C 
ATOM     18  O   UNL     1       7.503   1.010   0.020  0.00  0.00    -0.286 OA
ATOM     19  C   UNL     1       5.361   0.023   0.025  0.00  0.00    +0.033 A 
ATOM     20  C   UNL     1       4.696   1.255   0.025  0.00  0.00    +0.013 A 
ATOM     21  C   UNL     1       3.297   1.295   0.028  0.00  0.00    +0.004 A 
ENDROOT
BRANCH  10  11
ATOM     11  O   UNL     1      10.920  -2.716   0.017  0.00  0.00    -0.503 OA
ATOM     12  H   UNL     1      11.222  -1.785   0.016  0.00  0.00    +0.292 HD
ENDBRANCH  10  11
BRANCH  13  14
ATOM     14  O   UNL     1       9.745  -0.298   0.017  0.00  0.00    -0.503 OA
ATOM     15  H   UNL     1       9.169   0.503   0.018  0.00  0.00    +0.292 HD
ENDBRANCH  13  14
TORSDOF 2
