REMARK  Name = C:\Users\HP\Downloads\Anthraquinone_pdb\AD56.pdb
REMARK  3 active torsions:
REMARK  status: ('A' for Active; 'I' for Inactive)
REMARK    1  A    between atoms: C_1  and  C_2
REMARK    2  A    between atoms: C_9  and  O_10
REMARK    3  A    between atoms: C_12  and  O_13
REMARK                            x       y       z     vdW  Elec       q    Type
REMARK                         _______ _______ _______ _____ _____    ______ ____
ROOT
ATOM      1  C   UNL     1       0.902   0.174   0.034  0.00  0.00    +0.044 C 
ATOM      2  C   UNL     1       2.402   0.156   0.031  0.00  0.00    -0.050 A 
ATOM      3  C   UNL     1       3.074  -1.072   0.030  0.00  0.00    +0.015 A 
ATOM      4  C   UNL     1       4.474  -1.116   0.027  0.00  0.00    +0.033 A 
ATOM      5  C   UNL     1       5.153  -2.423   0.026  0.00  0.00    +0.195 C 
ATOM      6  O   UNL     1       4.500  -3.460   0.026  0.00  0.00    -0.287 OA
ATOM      7  C   UNL     1       6.627  -2.470   0.024  0.00  0.00    +0.040 A 
ATOM      8  C   UNL     1       7.268  -3.715   0.024  0.00  0.00    +0.058 A 
ATOM      9  C   UNL     1       8.656  -3.773   0.023  0.00  0.00    +0.121 A 
ATOM     12  C   UNL     1       9.418  -2.611   0.022  0.00  0.00    +0.091 A 
ATOM     13  C   UNL     1       8.775  -1.373   0.022  0.00  0.00    +0.132 A 
ATOM     16  C   UNL     1       7.375  -1.292   0.024  0.00  0.00    +0.075 A 
ATOM     17  C   UNL     1       6.686   0.016   0.025  0.00  0.00    +0.198 C 
ATOM     18  O   UNL     1       7.352   1.049   0.023  0.00  0.00    -0.286 OA
ATOM     19  C   UNL     1       5.211   0.065   0.027  0.00  0.00    +0.033 A 
ATOM     20  C   UNL     1       4.548   1.297   0.028  0.00  0.00    +0.013 A 
ATOM     21  C   UNL     1       3.149   1.340   0.030  0.00  0.00    +0.004 A 
ENDROOT
BRANCH   9  10
ATOM     10  O   UNL     1       9.236  -5.006   0.023  0.00  0.00    -0.507 OA
ATOM     11  H   UNL     1      10.202  -4.904   0.021  0.00  0.00    +0.292 HD
ENDBRANCH   9  10
BRANCH  13  14
ATOM     14  O   UNL     1       9.587  -0.270   0.021  0.00  0.00    -0.506 OA
ATOM     15  H   UNL     1       9.016   0.533   0.021  0.00  0.00    +0.292 HD
ENDBRANCH  13  14
TORSDOF 2
