REMARK  Name = C:\Users\HP\Downloads\Anthraquinone_pdb\AD57.pdb
REMARK  11 active torsions:
REMARK  status: ('A' for Active; 'I' for Inactive)
REMARK    1  A    between atoms: O_1  and  C_17
REMARK    2  A    between atoms: O_4  and  C_21
REMARK    3  A    between atoms: O_4  and  C_24
REMARK    4  A    between atoms: O_5  and  C_19
REMARK    5  A    between atoms: O_6  and  C_29
REMARK    6  A    between atoms: O_6  and  C_33
REMARK    7  A    between atoms: O_7  and  C_31
REMARK    8  A    between atoms: O_7  and  C_34
REMARK    9  A    between atoms: C_16  and  C_21
REMARK   10  A    between atoms: C_24  and  C_26
REMARK   11  A    between atoms: C_25  and  C_28
REMARK                            x       y       z     vdW  Elec       q    Type
REMARK                         _______ _______ _______ _____ _____    ______ ____
ROOT
ATOM      3  C   UNL     1      -3.433  -1.930  -1.244  0.00  0.00    +0.129 A 
ATOM      4  C   UNL     1      -2.218  -2.481  -0.834  0.00  0.00    +0.053 A 
ATOM      5  C   UNL     1      -1.565  -1.977   0.289  0.00  0.00    -0.006 A 
ATOM     22  C   UNL     1      -2.123  -0.918   1.006  0.00  0.00    +0.019 A 
ATOM     23  C   UNL     1      -3.341  -0.362   0.599  0.00  0.00    +0.037 A 
ATOM     24  C   UNL     1      -3.923   0.760   1.364  0.00  0.00    +0.195 C 
ATOM     25  C   UNL     1      -5.209   1.338   0.922  0.00  0.00    +0.037 A 
ATOM     26  C   UNL     1      -5.771   2.401   1.639  0.00  0.00    +0.012 A 
ATOM     27  C   UNL     1      -6.985   2.954   1.228  0.00  0.00    +0.004 A 
ATOM     28  C   UNL     1      -7.638   2.449   0.106  0.00  0.00    +0.046 A 
ATOM     29  C   UNL     1      -7.082   1.390  -0.611  0.00  0.00    +0.128 A 
ATOM     32  C   UNL     1      -5.864   0.832  -0.203  0.00  0.00    +0.075 A 
ATOM     33  C   UNL     1      -5.282  -0.289  -0.968  0.00  0.00    +0.202 C 
ATOM     34  O   UNL     1      -5.857  -0.734  -1.953  0.00  0.00    -0.286 OA
ATOM     35  O   UNL     1      -3.349   1.204   2.350  0.00  0.00    -0.287 OA
ATOM     36  C   UNL     1      -3.996  -0.867  -0.526  0.00  0.00    +0.075 A 
ENDROOT
BRANCH   3   1
ATOM      1  O   UNL     1      -4.017  -2.471  -2.350  0.00  0.00    -0.506 OA
ATOM      2  H   UNL     1      -4.850  -2.022  -2.555  0.00  0.00    +0.292 HD
ENDBRANCH   3   1
BRANCH  29  30
ATOM     30  O   UNL     1      -7.775   0.945  -1.698  0.00  0.00    -0.506 OA
ATOM     31  H   UNL     1      -7.309   0.212  -2.127  0.00  0.00    +0.292 HD
ENDBRANCH  29  30
BRANCH   5   6
ATOM      6  C   UNL     1      -0.268  -2.571   0.724  0.00  0.00    +0.268 C 
BRANCH   6   7
ATOM      7  O   UNL     1       0.795  -1.692   0.376  0.00  0.00    -0.457 OA
BRANCH   7   8
ATOM      8  C   UNL     1       2.048  -2.111   0.717  0.00  0.00    +0.332 C 
ATOM     21  O   UNL     1       2.337  -3.152   1.284  0.00  0.00    -0.246 OA
BRANCH   8   9
ATOM      9  C   UNL     1       3.011  -1.075   0.277  0.00  0.00    +0.092 C 
ATOM     10  C   UNL     1       4.320  -1.254   0.500  0.00  0.00    +0.015 C 
BRANCH  10  11
ATOM     11  C   UNL     1       5.372  -0.295   0.119  0.00  0.00    -0.021 A 
ATOM     12  C   UNL     1       5.119   0.667  -0.858  0.00  0.00    +0.012 A 
ATOM     13  C   UNL     1       6.115   1.575  -1.218  0.00  0.00    +0.050 A 
ATOM     14  C   UNL     1       7.365   1.521  -0.599  0.00  0.00    +0.162 A 
ATOM     15  C   UNL     1       7.618   0.559   0.378  0.00  0.00    +0.162 A 
ATOM     20  C   UNL     1       6.622  -0.349   0.738  0.00  0.00    +0.057 A 
BRANCH  15  16
ATOM     16  O   UNL     1       8.834   0.496   0.989  0.00  0.00    -0.491 OA
ATOM     17  C   UNL     1       9.821  -0.337   0.383  0.00  0.00    +0.277 C 
ENDBRANCH  15  16
BRANCH  14  18
ATOM     18  O   UNL     1       8.329   2.413  -0.959  0.00  0.00    -0.491 OA
ATOM     19  C   UNL     1       7.988   3.364  -1.966  0.00  0.00    +0.277 C 
ENDBRANCH  14  18
ENDBRANCH  10  11
ENDBRANCH   8   9
ENDBRANCH   7   8
ENDBRANCH   6   7
ENDBRANCH   5   6
TORSDOF 9
