REMARK  Name = C:\Users\HP\Downloads\Anthraquinone_pdb\AD58.pdb
REMARK  6 active torsions:
REMARK  status: ('A' for Active; 'I' for Inactive)
REMARK    1  A    between atoms: O_3  and  C_15
REMARK    2  A    between atoms: O_4  and  C_16
REMARK    3  A    between atoms: O_5  and  C_19
REMARK    4  A    between atoms: O_6  and  C_20
REMARK    5  A    between atoms: O_7  and  C_21
REMARK    6  A    between atoms: O_8  and  C_22
REMARK                            x       y       z     vdW  Elec       q    Type
REMARK                         _______ _______ _______ _____ _____    ______ ____
ROOT
ATOM      1  O   UNL     1      -0.229  -2.662   0.000  0.00  0.00    -0.286 OA
ATOM      2  C   UNL     1      -0.140  -1.441  -0.001  0.00  0.00    +0.198 C 
ATOM      3  C   UNL     1       1.200  -0.818  -0.001  0.00  0.00    +0.040 A 
ATOM      4  C   UNL     1       2.340  -1.630   0.000  0.00  0.00    +0.061 A 
ATOM      5  C   UNL     1       3.609  -1.050   0.000  0.00  0.00    +0.163 A 
ATOM      6  C   UNL     1       3.744   0.337   0.001  0.00  0.00    +0.201 A 
ATOM      7  C   UNL     1       2.610   1.150   0.000  0.00  0.00    +0.174 A 
ATOM     14  C   UNL     1       1.335   0.572   0.000  0.00  0.00    +0.078 A 
ATOM     15  C   UNL     1       0.140   1.441  -0.001  0.00  0.00    +0.198 C 
ATOM     16  C   UNL     1      -1.200   0.818  -0.001  0.00  0.00    +0.040 A 
ATOM     17  C   UNL     1      -2.340   1.630  -0.001  0.00  0.00    +0.061 A 
ATOM     18  C   UNL     1      -3.609   1.050   0.000  0.00  0.00    +0.163 A 
ATOM     19  C   UNL     1      -3.744  -0.337   0.001  0.00  0.00    +0.201 A 
ATOM     20  C   UNL     1      -2.610  -1.150   0.000  0.00  0.00    +0.174 A 
ATOM     27  O   UNL     1       0.229   2.662  -0.001  0.00  0.00    -0.286 OA
ATOM     28  C   UNL     1      -1.334  -0.572   0.000  0.00  0.00    +0.078 A 
ENDROOT
BRANCH   7   8
ATOM      8  O   UNL     1       2.796   2.502   0.001  0.00  0.00    -0.503 OA
ATOM      9  H   UNL     1       1.948   2.970   0.002  0.00  0.00    +0.292 HD
ENDBRANCH   7   8
BRANCH   6  10
ATOM     10  O   UNL     1       4.988   0.897   0.001  0.00  0.00    -0.501 OA
ATOM     11  H   UNL     1       4.889   1.865   0.002  0.00  0.00    +0.292 HD
ENDBRANCH   6  10
BRANCH   5  12
ATOM     12  O   UNL     1       4.710  -1.853   0.000  0.00  0.00    -0.503 OA
ATOM     13  H   UNL     1       5.502  -1.286   0.001  0.00  0.00    +0.292 HD
ENDBRANCH   5  12
BRANCH  20  21
ATOM     21  O   UNL     1      -2.797  -2.502   0.000  0.00  0.00    -0.503 OA
ATOM     22  H   UNL     1      -1.948  -2.970  -0.001  0.00  0.00    +0.292 HD
ENDBRANCH  20  21
BRANCH  19  23
ATOM     23  O   UNL     1      -4.988  -0.897   0.002  0.00  0.00    -0.501 OA
ATOM     24  H   UNL     1      -4.889  -1.865   0.002  0.00  0.00    +0.292 HD
ENDBRANCH  19  23
BRANCH  18  25
ATOM     25  O   UNL     1      -4.710   1.852   0.001  0.00  0.00    -0.503 OA
ATOM     26  H   UNL     1      -4.426   2.783   0.001  0.00  0.00    +0.292 HD
ENDBRANCH  18  25
TORSDOF 6
