REMARK  Name = C:\Users\HP\Downloads\Anthraquinone_pdb\AD6.pdb
REMARK  19 active torsions:
REMARK  status: ('A' for Active; 'I' for Inactive)
REMARK    1  A    between atoms: C_2  and  O_3
REMARK    2  A    between atoms: O_3  and  C_4
REMARK    3  A    between atoms: C_7  and  N_9
REMARK    4  A    between atoms: C_10  and  C_12
REMARK    5  A    between atoms: C_16  and  O_18
REMARK    6  A    between atoms: C_19  and  C_21
REMARK    7  A    between atoms: C_24  and  O_25
REMARK    8  A    between atoms: C_24  and  C_26
REMARK    9  A    between atoms: C_26  and  C_28
REMARK   10  A    between atoms: C_28  and  O_29
REMARK   11  A    between atoms: O_29  and  C_30
REMARK   12  A    between atoms: C_30  and  C_32
REMARK   13  A    between atoms: C_32  and  C_33
REMARK   14  A    between atoms: C_33  and  C_34
REMARK   15  A    between atoms: C_34  and  C_35
REMARK   16  A    between atoms: C_38  and  O_39
REMARK   17  A    between atoms: C_45  and  O_46
REMARK   18  A    between atoms: O_46  and  C_47
REMARK   19  A    between atoms: C_54  and  O_55
REMARK                            x       y       z     vdW  Elec       q    Type
REMARK                         _______ _______ _______ _____ _____    ______ ____
ROOT
ATOM      1  C   UNL     1       1.803   0.348   0.277  0.00  0.00    +0.158 C 
ATOM      2  C   UNL     1       1.852  -0.915  -0.572  0.00  0.00    +0.030 A 
ATOM      3  C   UNL     1       1.300  -2.107  -0.054  0.00  0.00    +0.134 A 
ATOM      6  C   UNL     1       1.588  -3.369  -0.612  0.00  0.00    +0.078 A 
ATOM      7  C   UNL     1       1.058  -4.591   0.040  0.00  0.00    +0.202 C 
ATOM      8  C   UNL     1       1.553  -5.930  -0.360  0.00  0.00    +0.075 A 
ATOM      9  C   UNL     1       2.433  -6.013  -1.442  0.00  0.00    +0.037 A 
ATOM     10  C   UNL     1       2.826  -4.791  -2.210  0.00  0.00    +0.198 C 
ATOM     11  O   UNL     1       3.516  -4.876  -3.220  0.00  0.00    -0.286 OA
ATOM     12  C   UNL     1       2.972  -7.261  -1.798  0.00  0.00    +0.012 A 
ATOM     13  C   UNL     1       2.643  -8.409  -1.071  0.00  0.00    +0.004 A 
ATOM     14  C   UNL     1       1.744  -8.336  -0.013  0.00  0.00    +0.046 A 
ATOM     15  C   UNL     1       1.172  -7.107   0.338  0.00  0.00    +0.132 A 
ATOM     18  O   UNL     1       0.236  -4.447   0.934  0.00  0.00    -0.286 OA
ATOM     19  C   UNL     1       2.422  -3.447  -1.722  0.00  0.00    +0.078 A 
ATOM     20  C   UNL     1       2.910  -2.245  -2.302  0.00  0.00    +0.132 A 
ATOM     23  C   UNL     1       2.647  -0.971  -1.732  0.00  0.00    +0.007 A 
ATOM     24  C   UNL     1       3.209   0.317  -2.340  0.00  0.00    +0.082 C 
ATOM     25  C   UNL     1       3.317   1.540  -1.374  0.00  0.00    +0.134 C 
ATOM     38  C   UNL     1       2.020   1.629  -0.576  0.00  0.00    +0.079 C 
ENDROOT
BRANCH   3   4
ATOM      4  O   UNL     1       0.512  -1.977   1.068  0.00  0.00    -0.506 OA
ATOM      5  H   UNL     1       0.231  -2.878   1.355  0.00  0.00    +0.292 HD
ENDBRANCH   3   4
BRANCH  15  16
ATOM     16  O   UNL     1       0.304  -7.002   1.393  0.00  0.00    -0.494 OA
ATOM     17  C   UNL     1      -0.504  -8.138   1.704  0.00  0.00    +0.277 C 
ENDBRANCH  15  16
BRANCH  20  21
ATOM     21  O   UNL     1       3.707  -2.267  -3.421  0.00  0.00    -0.506 OA
ATOM     22  H   UNL     1       3.931  -3.201  -3.632  0.00  0.00    +0.292 HD
ENDBRANCH  20  21
BRANCH  25  26
ATOM     26  O   UNL     1       4.373   1.391  -0.416  0.00  0.00    -0.381 OA
ATOM     27  H   UNL     1       5.172   1.105  -0.900  0.00  0.00    +0.211 HD
ENDBRANCH  25  26
BRANCH  25  28
ATOM     28  C   UNL     1       3.866   2.762  -2.153  0.00  0.00    +0.202 C 
ATOM     37  O   UNL     1       4.821   2.594  -2.931  0.00  0.00    -0.291 OA
BRANCH  28  29
ATOM     29  C   UNL     1       3.494   4.199  -1.776  0.00  0.00    +0.309 C 
BRANCH  29  30
ATOM     30  O   UNL     1       2.125   4.550  -1.684  0.00  0.00    -0.457 OA
BRANCH  30  31
ATOM     31  C   UNL     1       1.462   4.538  -2.872  0.00  0.00    +0.307 C 
ATOM     36  O   UNL     1       1.934   4.165  -3.935  0.00  0.00    -0.251 OA
BRANCH  31  32
ATOM     32  C   UNL     1       0.045   5.016  -2.668  0.00  0.00    +0.120 C 
BRANCH  32  33
ATOM     33  C   UNL     1      -0.966   4.123  -3.383  0.00  0.00    +0.011 C 
BRANCH  33  34
ATOM     34  C   UNL     1      -0.869   2.665  -2.932  0.00  0.00    -0.003 C 
ATOM     35  C   UNL     1      -1.906   1.784  -3.602  0.00  0.00    +0.004 C 
ENDBRANCH  33  34
ENDBRANCH  32  33
ENDBRANCH  31  32
ENDBRANCH  30  31
ENDBRANCH  29  30
ENDBRANCH  28  29
ENDBRANCH  25  28
BRANCH   1  39
ATOM     39  O   UNL     1       2.808   0.037   1.255  0.00  0.00    -0.343 OA
BRANCH  39  40
ATOM     40  C   UNL     1       3.052   0.926   2.329  0.00  0.00    +0.253 C 
ATOM     41  O   UNL     1       4.327   0.609   2.930  0.00  0.00    -0.346 OA
ATOM     42  C   UNL     1       4.342  -0.637   3.645  0.00  0.00    +0.148 C 
ATOM     43  C   UNL     1       5.741  -0.943   4.177  0.00  0.00    +0.041 C 
ATOM     44  C   UNL     1       3.337  -0.596   4.800  0.00  0.00    +0.163 C 
ATOM     47  C   UNL     1       1.948  -0.393   4.177  0.00  0.00    +0.109 C 
ATOM     56  C   UNL     1       1.922   0.908   3.369  0.00  0.00    +0.086 C 
BRANCH  47  48
ATOM     48  N   UNL     1       0.897  -0.447   5.193  0.00  0.00    -0.302 N 
ATOM     49  H   UNL     1       0.599   0.415   5.641  0.00  0.00    +0.149 HD
ATOM     50  C   UNL     1       0.601  -1.661   5.817  0.00  0.00    +0.318 C 
ATOM     55  O   UNL     1       1.169  -2.705   5.486  0.00  0.00    -0.266 OA
BRANCH  50  51
ATOM     51  C   UNL     1      -0.462  -1.601   6.929  0.00  0.00    +0.469 C 
ATOM     52  F   UNL     1      -0.027  -2.160   8.092  0.00  0.00    -0.162 F 
ATOM     53  F   UNL     1      -1.609  -2.247   6.587  0.00  0.00    -0.162 F 
ATOM     54  F   UNL     1      -0.815  -0.318   7.232  0.00  0.00    -0.162 F 
ENDBRANCH  50  51
ENDBRANCH  47  48
BRANCH  44  45
ATOM     45  O   UNL     1       3.624   0.487   5.703  0.00  0.00    -0.387 OA
ATOM     46  H   UNL     1       3.542   0.140   6.607  0.00  0.00    +0.210 HD
ENDBRANCH  44  45
ENDBRANCH  39  40
ENDBRANCH   1  39
TORSDOF 16
