REMARK  Name = C:\Users\HP\Downloads\Anthraquinone_pdb\AD7.pdb
REMARK  12 active torsions:
REMARK  status: ('A' for Active; 'I' for Inactive)
REMARK    1  A    between atoms: O_1  and  C_12
REMARK    2  A    between atoms: O_1  and  C_18
REMARK    3  A    between atoms: O_3  and  C_13
REMARK    4  A    between atoms: O_4  and  C_21
REMARK    5  A    between atoms: O_5  and  C_23
REMARK    6  A    between atoms: O_6  and  C_25
REMARK    7  A    between atoms: O_10  and  C_34
REMARK    8  A    between atoms: O_10  and  C_38
REMARK    9  A    between atoms: N_11  and  C_20
REMARK   10  A    between atoms: C_13  and  C_24
REMARK   11  A    between atoms: C_22  and  C_28
REMARK   12  A    between atoms: C_24  and  C_29
REMARK                            x       y       z     vdW  Elec       q    Type
REMARK                         _______ _______ _______ _____ _____    ______ ____
ROOT
ATOM     14  C   UNL     1       1.732  -0.199  -1.150  0.00  0.00    +0.158 C 
ATOM     15  C   UNL     1       0.354  -0.609  -0.690  0.00  0.00    +0.030 A 
ATOM     16  C   UNL     1      -0.708   0.300  -0.832  0.00  0.00    +0.134 A 
ATOM     17  C   UNL     1      -1.998  -0.032  -0.403  0.00  0.00    +0.078 A 
ATOM     18  C   UNL     1      -3.097   0.942  -0.569  0.00  0.00    +0.202 C 
ATOM     19  C   UNL     1      -4.455   0.572  -0.122  0.00  0.00    +0.075 A 
ATOM     20  C   UNL     1      -5.507   1.483  -0.279  0.00  0.00    +0.132 A 
ATOM     21  C   UNL     1      -6.793   1.141   0.140  0.00  0.00    +0.046 A 
ATOM     22  C   UNL     1      -7.033  -0.106   0.715  0.00  0.00    +0.004 A 
ATOM     23  C   UNL     1      -5.987  -1.016   0.873  0.00  0.00    +0.012 A 
ATOM     26  C   UNL     1      -4.695  -0.677   0.454  0.00  0.00    +0.037 A 
ATOM     27  C   UNL     1      -3.594  -1.646   0.626  0.00  0.00    +0.198 C 
ATOM     28  O   UNL     1      -3.803  -2.739   1.137  0.00  0.00    -0.286 OA
ATOM     29  O   UNL     1      -2.885   2.039  -1.070  0.00  0.00    -0.286 OA
ATOM     30  C   UNL     1      -2.237  -1.277   0.174  0.00  0.00    +0.078 A 
ATOM     31  C   UNL     1      -1.185  -2.187   0.325  0.00  0.00    +0.132 A 
ATOM     36  C   UNL     1       0.116  -1.859  -0.094  0.00  0.00    +0.007 A 
ATOM     37  C   UNL     1       1.206  -2.896   0.061  0.00  0.00    +0.082 C 
ATOM     38  C   UNL     1       2.622  -2.340  -0.117  0.00  0.00    +0.130 C 
ATOM     44  C   UNL     1       2.692  -1.383  -1.309  0.00  0.00    +0.079 C 
ENDROOT
BRANCH  38  39
ATOM     39  C   UNL     1       3.586  -3.477  -0.313  0.00  0.00    +0.162 C 
ATOM     40  C   UNL     1       3.680  -4.483   0.801  0.00  0.00    +0.089 C 
ATOM     41  O   UNL     1       4.265  -3.578  -1.333  0.00  0.00    -0.295 OA
ENDBRANCH  38  39
BRANCH  20  24
ATOM     24  O   UNL     1      -5.345   2.718  -0.834  0.00  0.00    -0.494 OA
ATOM     25  C   UNL     1      -5.022   3.787   0.052  0.00  0.00    +0.277 C 
ENDBRANCH  20  24
BRANCH  31  32
ATOM     32  O   UNL     1      -1.393  -3.423   0.873  0.00  0.00    -0.506 OA
ATOM     33  H   UNL     1      -0.755  -4.067   0.527  0.00  0.00    +0.292 HD
ENDBRANCH  31  32
BRANCH  16  34
ATOM     34  O   UNL     1      -0.439   1.517  -1.397  0.00  0.00    -0.506 OA
ATOM     35  H   UNL     1       0.484   1.767  -1.240  0.00  0.00    +0.292 HD
ENDBRANCH  16  34
BRANCH  38  42
ATOM     42  O   UNL     1       3.058  -1.679   1.063  0.00  0.00    -0.381 OA
ATOM     43  H   UNL     1       2.771  -2.187   1.840  0.00  0.00    +0.211 HD
ENDBRANCH  38  42
BRANCH  14   1
ATOM      1  O   UNL     1       2.252   0.731  -0.202  0.00  0.00    -0.343 OA
BRANCH   1   2
ATOM      2  C   UNL     1       3.108   1.682  -0.829  0.00  0.00    +0.253 C 
ATOM      3  C   UNL     1       3.018   3.020  -0.091  0.00  0.00    +0.082 C 
ATOM      4  C   UNL     1       3.692   2.928   1.283  0.00  0.00    +0.087 C 
ATOM      5  C   UNL     1       5.121   2.386   1.139  0.00  0.00    +0.160 C 
ATOM      6  C   UNL     1       5.096   1.060   0.364  0.00  0.00    +0.148 C 
ATOM      7  C   UNL     1       6.497   0.515   0.102  0.00  0.00    +0.041 C 
ATOM     13  O   UNL     1       4.461   1.228  -0.910  0.00  0.00    -0.346 OA
BRANCH   4  10
ATOM     10  N   UNL     1       3.688   4.236   1.935  0.00  0.00    -0.325 NA
ATOM     11  H   UNL     1       4.225   4.900   1.379  0.00  0.00    +0.119 HD
ATOM     12  H   UNL     1       2.736   4.600   1.969  0.00  0.00    +0.119 HD
ENDBRANCH   4  10
BRANCH   5   8
ATOM      8  O   UNL     1       5.934   3.319   0.425  0.00  0.00    -0.388 OA
ATOM      9  H   UNL     1       6.863   3.071   0.566  0.00  0.00    +0.210 HD
ENDBRANCH   5   8
ENDBRANCH   1   2
ENDBRANCH  14   1
TORSDOF 9
