REMARK  Name = C:\Users\HP\Downloads\Anthraquinone_pdb\AD8.pdb
REMARK  3 active torsions:
REMARK  status: ('A' for Active; 'I' for Inactive)
REMARK    1  A    between atoms: O_1  and  C_11
REMARK    2  A    between atoms: O_3  and  C_14
REMARK    3  A    between atoms: C_12  and  C_17
REMARK                            x       y       z     vdW  Elec       q    Type
REMARK                         _______ _______ _______ _____ _____    ______ ____
ROOT
ATOM      3  C   UNL     1       1.907   1.137   0.000  0.00  0.00    +0.135 A 
ATOM      4  C   UNL     1       3.070   0.366   0.000  0.00  0.00    +0.033 A 
ATOM      5  C   UNL     1       4.412   1.028  -0.001  0.00  0.00    +0.051 C 
ATOM      6  C   UNL     1       2.987  -1.025   0.000  0.00  0.00    +0.124 A 
ATOM      7  C   UNL     1       1.740  -1.651   0.000  0.00  0.00    +0.058 A 
ATOM      8  C   UNL     1       0.571  -0.881   0.001  0.00  0.00    +0.040 A 
ATOM      9  C   UNL     1      -0.745  -1.553   0.001  0.00  0.00    +0.195 C 
ATOM     10  C   UNL     1      -1.971  -0.729   0.000  0.00  0.00    +0.033 A 
ATOM     11  C   UNL     1      -3.224  -1.354   0.000  0.00  0.00    +0.012 A 
ATOM     12  C   UNL     1      -4.387  -0.583  -0.001  0.00  0.00    +0.001 A 
ATOM     13  C   UNL     1      -4.304   0.808  -0.002  0.00  0.00    +0.001 A 
ATOM     14  C   UNL     1      -3.057   1.434  -0.001  0.00  0.00    +0.012 A 
ATOM     15  C   UNL     1      -1.887   0.665   0.000  0.00  0.00    +0.033 A 
ATOM     16  C   UNL     1      -0.572   1.337   0.001  0.00  0.00    +0.198 C 
ATOM     17  O   UNL     1      -0.528   2.560   0.002  0.00  0.00    -0.286 OA
ATOM     18  O   UNL     1      -0.819  -2.776   0.000  0.00  0.00    -0.287 OA
ATOM     21  C   UNL     1       0.654   0.512   0.001  0.00  0.00    +0.075 A 
ENDROOT
BRANCH   3   1
ATOM      1  O   UNL     1       2.039   2.495  -0.001  0.00  0.00    -0.506 OA
ATOM      2  H   UNL     1       2.958   2.778  -0.122  0.00  0.00    +0.292 HD
ENDBRANCH   3   1
BRANCH   6  19
ATOM     19  O   UNL     1       4.114  -1.791  -0.001  0.00  0.00    -0.506 OA
ATOM     20  H   UNL     1       3.861  -2.730  -0.002  0.00  0.00    +0.292 HD
ENDBRANCH   6  19
TORSDOF 2
