REMARK  Name = C:\Users\HP\Downloads\Anthraquinone_pdb\AD9.pdb
REMARK  2 active torsions:
REMARK  status: ('A' for Active; 'I' for Inactive)
REMARK    1  A    between atoms: O_1  and  C_11
REMARK    2  A    between atoms: O_4  and  C_15
REMARK                            x       y       z     vdW  Elec       q    Type
REMARK                         _______ _______ _______ _____ _____    ______ ____
ROOT
ATOM      3  C   UNL     1       2.231   0.834   0.000  0.00  0.00    +0.170 A 
ATOM      4  C   UNL     1       3.315  -0.044   0.000  0.00  0.00    +0.159 A 
ATOM      5  C   UNL     1       3.100  -1.421   0.000  0.00  0.00    +0.050 A 
ATOM      6  C   UNL     1       1.800  -1.926  -0.001  0.00  0.00    +0.016 A 
ATOM      7  C   UNL     1       0.709  -1.049  -0.001  0.00  0.00    +0.037 A 
ATOM      8  C   UNL     1      -0.665  -1.593   0.000  0.00  0.00    +0.195 C 
ATOM      9  C   UNL     1      -1.807  -0.656   0.000  0.00  0.00    +0.033 A 
ATOM     10  C   UNL     1      -3.113  -1.159   0.000  0.00  0.00    +0.012 A 
ATOM     11  C   UNL     1      -4.198  -0.282   0.001  0.00  0.00    +0.001 A 
ATOM     12  C   UNL     1      -3.983   1.095   0.001  0.00  0.00    +0.001 A 
ATOM     13  C   UNL     1      -2.683   1.600   0.000  0.00  0.00    +0.012 A 
ATOM     14  C   UNL     1      -1.591   0.723   0.000  0.00  0.00    +0.033 A 
ATOM     15  C   UNL     1      -0.218   1.267  -0.001  0.00  0.00    +0.198 C 
ATOM     16  O   UNL     1      -0.058   2.482  -0.002  0.00  0.00    -0.286 OA
ATOM     17  O   UNL     1      -0.853  -2.803   0.000  0.00  0.00    -0.287 OA
ATOM     20  C   UNL     1       0.924   0.331  -0.001  0.00  0.00    +0.078 A 
ENDROOT
BRANCH   3   1
ATOM      1  O   UNL     1       2.497   2.172   0.001  0.00  0.00    -0.503 OA
ATOM      2  H   UNL     1       1.677   2.689   0.004  0.00  0.00    +0.292 HD
ENDBRANCH   3   1
BRANCH   4  18
ATOM     18  O   UNL     1       4.594   0.429   0.001  0.00  0.00    -0.503 OA
ATOM     19  H   UNL     1       4.559   1.402   0.002  0.00  0.00    +0.292 HD
ENDBRANCH   4  18
TORSDOF 2
